<?xml version="1.0" encoding="UTF-8"?>

<!-- generated on 2023-06-30 02:17:08 by Eclipse SUMO sumo Version 1.17.0
<configuration xmlns:xsi="http://www.w3.org/2001/XMLSchema-instance" xsi:noNamespaceSchemaLocation="http://sumo.dlr.de/xsd/sumoConfiguration.xsd">

    <input>
        <net-file value="/mnt/workspace/wangding/Desktop/TransWorldNG/experiment/hangzhou/hangzhou_4x4_gudang_18041610_1h.net.xml"/>
        <route-files value="/mnt/workspace/wangding/Desktop/TransWorldNG/experiment/hangzhou/hangzhou_4x4_gudang_18041610_1h.rou.xml"/>
    </input>

    <output>
        <tripinfo-output value="/mnt/workspace/wangding/Desktop/TransWorldNG/experiment/hangzhou/tripinfo.xml"/>
    </output>

    <time>
        <begin value="0"/>
        <end value="1"/>
        <step-length value="1.0"/>
    </time>

    <traci_server>
        <remote-port value="47959"/>
    </traci_server>

</configuration>
-->

<tripinfos xmlns:xsi="http://www.w3.org/2001/XMLSchema-instance" xsi:noNamespaceSchemaLocation="http://sumo.dlr.de/xsd/tripinfo_file.xsd">
    <tripinfo id="11" depart="8.00" departLane="road_0_4_0_0" departPos="5.10" departSpeed="0.00" departDelay="0.00" arrival="142.00" arrivalLane="road_1_4_1_0" arrivalPos="586.40" arrivalSpeed="10.47" duration="134.00" routeLength="1397.55" waitingTime="0.00" waitingCount="0" stopTime="0.00" timeLoss="10.75" rerouteNo="0" devices="tripinfo_11" vType="DEFAULT_VEHTYPE" speedFactor="1.03" vaporized=""/>
    <tripinfo id="28" depart="30.00" departLane="road_0_1_0_0" departPos="5.10" departSpeed="0.00" departDelay="0.00" arrival="155.00" arrivalLane="road_1_1_3_0" arrivalPos="586.40" arrivalSpeed="11.82" duration="125.00" routeLength="1376.73" waitingTime="1.00" waitingCount="1" stopTime="0.00" timeLoss="14.96" rerouteNo="0" devices="tripinfo_28" vType="DEFAULT_VEHTYPE" speedFactor="1.13" vaporized=""/>
    <tripinfo id="38" depart="42.00" departLane="road_5_4_2_0" departPos="5.10" departSpeed="0.00" departDelay="0.00" arrival="165.00" arrivalLane="road_4_4_1_0" arrivalPos="586.40" arrivalSpeed="12.08" duration="123.00" routeLength="1376.73" waitingTime="0.00" waitingCount="0" stopTime="0.00" timeLoss="10.06" rerouteNo="0" devices="tripinfo_38" vType="DEFAULT_VEHTYPE" speedFactor="1.10" vaporized=""/>
    <tripinfo id="0" depart="0.00" departLane="road_4_0_1_0" departPos="5.10" departSpeed="0.00" departDelay="0.00" arrival="182.00" arrivalLane="road_4_2_0_0" arrivalPos="786.40" arrivalSpeed="10.54" duration="182.00" routeLength="1976.90" waitingTime="0.00" waitingCount="0" stopTime="0.00" timeLoss="13.57" rerouteNo="0" devices="tripinfo_0" vType="DEFAULT_VEHTYPE" speedFactor="1.06" vaporized=""/>
    <tripinfo id="60" depart="70.00" departLane="road_5_4_2_0" departPos="5.10" departSpeed="0.00" departDelay="0.00" arrival="201.00" arrivalLane="road_4_4_1_0" arrivalPos="586.40" arrivalSpeed="11.20" duration="131.00" routeLength="1376.73" waitingTime="0.00" waitingCount="0" stopTime="0.00" timeLoss="15.40" rerouteNo="0" devices="tripinfo_60" vType="DEFAULT_VEHTYPE" speedFactor="1.08" vaporized=""/>
    <tripinfo id="48" depart="56.00" departLane="road_5_4_2_0" departPos="5.10" departSpeed="0.00" departDelay="0.00" arrival="211.00" arrivalLane="road_4_4_1_0" arrivalPos="586.40" arrivalSpeed="8.89" duration="155.00" routeLength="1376.73" waitingTime="0.00" waitingCount="0" stopTime="0.00" timeLoss="12.30" rerouteNo="0" devices="tripinfo_48" vType="DEFAULT_VEHTYPE" speedFactor="0.88" vaporized=""/>
    <tripinfo id="69" depart="80.00" departLane="road_0_4_0_0" departPos="5.10" departSpeed="0.00" departDelay="0.00" arrival="213.00" arrivalLane="road_1_4_1_0" arrivalPos="586.40" arrivalSpeed="10.19" duration="133.00" routeLength="1397.55" waitingTime="0.00" waitingCount="0" stopTime="0.00" timeLoss="9.36" rerouteNo="0" devices="tripinfo_69" vType="DEFAULT_VEHTYPE" speedFactor="1.02" vaporized=""/>
    <tripinfo id="31" depart="36.00" departLane="road_0_4_0_0" departPos="5.10" departSpeed="0.00" departDelay="0.00" arrival="220.00" arrivalLane="road_1_3_2_0" arrivalPos="786.40" arrivalSpeed="11.93" duration="184.00" routeLength="2158.56" waitingTime="0.00" waitingCount="0" stopTime="0.00" timeLoss="14.70" rerouteNo="0" devices="tripinfo_31" vType="DEFAULT_VEHTYPE" speedFactor="1.15" vaporized=""/>
    <tripinfo id="84" depart="104.00" departLane="road_4_0_1_0" departPos="5.10" departSpeed="0.00" departDelay="0.00" arrival="222.00" arrivalLane="road_4_1_0_0" arrivalPos="786.40" arrivalSpeed="12.06" duration="118.00" routeLength="1376.73" waitingTime="0.00" waitingCount="0" stopTime="0.00" timeLoss="9.62" rerouteNo="0" devices="tripinfo_84" vType="DEFAULT_VEHTYPE" speedFactor="1.15" vaporized=""/>
    <tripinfo id="8" depart="0.00" departLane="road_5_3_2_0" departPos="5.10" departSpeed="0.00" departDelay="0.00" arrival="226.00" arrivalLane="road_4_4_0_0" arrivalPos="786.40" arrivalSpeed="9.36" duration="226.00" routeLength="2158.56" waitingTime="0.00" waitingCount="0" stopTime="0.00" timeLoss="17.64" rerouteNo="0" devices="tripinfo_8" vType="DEFAULT_VEHTYPE" speedFactor="0.94" vaporized=""/>
    <tripinfo id="66" depart="78.00" departLane="road_4_0_1_0" departPos="5.10" departSpeed="0.00" departDelay="0.00" arrival="227.00" arrivalLane="road_4_1_0_0" arrivalPos="786.40" arrivalSpeed="9.00" duration="149.00" routeLength="1376.73" waitingTime="0.00" waitingCount="0" stopTime="0.00" timeLoss="11.32" rerouteNo="0" devices="tripinfo_66" vType="DEFAULT_VEHTYPE" speedFactor="0.91" vaporized=""/>
    <tripinfo id="75" depart="91.00" departLane="road_5_4_2_0" departPos="5.10" departSpeed="0.00" departDelay="0.00" arrival="232.00" arrivalLane="road_4_4_1_0" arrivalPos="586.40" arrivalSpeed="9.84" duration="141.00" routeLength="1376.73" waitingTime="1.00" waitingCount="1" stopTime="0.00" timeLoss="14.01" rerouteNo="0" devices="tripinfo_75" vType="DEFAULT_VEHTYPE" speedFactor="0.98" vaporized=""/>
    <tripinfo id="112" depart="138.00" departLane="road_1_5_3_0" departPos="5.10" departSpeed="0.00" departDelay="0.00" arrival="262.00" arrivalLane="road_1_4_2_0" arrivalPos="786.40" arrivalSpeed="11.90" duration="124.00" routeLength="1376.73" waitingTime="0.00" waitingCount="0" stopTime="0.00" timeLoss="10.04" rerouteNo="0" devices="tripinfo_112" vType="DEFAULT_VEHTYPE" speedFactor="1.10" vaporized=""/>
    <tripinfo id="106" depart="130.00" departLane="road_0_1_0_0" departPos="5.10" departSpeed="0.00" departDelay="0.00" arrival="268.00" arrivalLane="road_1_1_3_0" arrivalPos="586.40" arrivalSpeed="10.38" duration="138.00" routeLength="1376.73" waitingTime="0.00" waitingCount="0" stopTime="0.00" timeLoss="14.43" rerouteNo="0" devices="tripinfo_106" vType="DEFAULT_VEHTYPE" speedFactor="1.01" vaporized=""/>
    <tripinfo id="15" depart="13.00" departLane="road_5_3_2_0" departPos="5.10" departSpeed="0.00" departDelay="0.00" arrival="275.00" arrivalLane="road_4_4_1_0" arrivalPos="586.40" arrivalSpeed="9.73" duration="262.00" routeLength="1979.60" waitingTime="48.00" waitingCount="1" stopTime="0.00" timeLoss="69.03" rerouteNo="0" devices="tripinfo_15" vType="DEFAULT_VEHTYPE" speedFactor="0.93" vaporized=""/>
    <tripinfo id="25" depart="26.00" departLane="road_5_3_2_0" departPos="5.10" departSpeed="0.00" departDelay="0.00" arrival="281.00" arrivalLane="road_4_4_1_0" arrivalPos="586.40" arrivalSpeed="9.60" duration="255.00" routeLength="1979.60" waitingTime="30.00" waitingCount="1" stopTime="0.00" timeLoss="50.35" rerouteNo="0" devices="tripinfo_25" vType="DEFAULT_VEHTYPE" speedFactor="0.87" vaporized=""/>
    <tripinfo id="36" depart="40.00" departLane="road_0_1_0_0" departPos="5.10" departSpeed="0.00" departDelay="0.00" arrival="286.00" arrivalLane="road_2_1_3_0" arrivalPos="586.40" arrivalSpeed="9.70" duration="246.00" routeLength="2176.90" waitingTime="23.00" waitingCount="1" stopTime="0.00" timeLoss="44.14" rerouteNo="0" devices="tripinfo_36" vType="DEFAULT_VEHTYPE" speedFactor="0.97" vaporized=""/>
    <tripinfo id="68" depart="80.00" departLane="road_0_1_0_0" departPos="5.10" departSpeed="0.00" departDelay="0.00" arrival="286.00" arrivalLane="road_2_1_3_1" arrivalPos="586.40" arrivalSpeed="10.65" duration="206.00" routeLength="2176.90" waitingTime="0.00" waitingCount="0" stopTime="0.00" timeLoss="16.55" rerouteNo="0" devices="tripinfo_68" vType="DEFAULT_VEHTYPE" speedFactor="1.04" vaporized=""/>
    <tripinfo id="73" depart="90.00" departLane="road_0_1_0_0" departPos="5.10" departSpeed="0.00" departDelay="0.00" arrival="291.00" arrivalLane="road_2_1_3_0" arrivalPos="586.40" arrivalSpeed="11.71" duration="201.00" routeLength="2176.90" waitingTime="0.00" waitingCount="0" stopTime="0.00" timeLoss="14.16" rerouteNo="0" devices="tripinfo_73" vType="DEFAULT_VEHTYPE" speedFactor="1.06" vaporized=""/>
    <tripinfo id="129" depart="160.00" departLane="road_0_1_0_0" departPos="5.10" departSpeed="0.00" departDelay="0.00" arrival="294.00" arrivalLane="road_1_1_3_0" arrivalPos="586.40" arrivalSpeed="10.61" duration="134.00" routeLength="1376.73" waitingTime="0.00" waitingCount="0" stopTime="0.00" timeLoss="10.30" rerouteNo="0" devices="tripinfo_129" vType="DEFAULT_VEHTYPE" speedFactor="1.01" vaporized=""/>
    <tripinfo id="141" depart="175.00" departLane="road_5_4_2_0" departPos="5.10" departSpeed="0.00" departDelay="0.00" arrival="296.00" arrivalLane="road_4_4_1_0" arrivalPos="586.40" arrivalSpeed="12.67" duration="121.00" routeLength="1376.73" waitingTime="0.00" waitingCount="0" stopTime="0.00" timeLoss="13.31" rerouteNo="0" devices="tripinfo_141" vType="DEFAULT_VEHTYPE" speedFactor="1.16" vaporized=""/>
    <tripinfo id="3" depart="0.00" departLane="road_0_2_0_0" departPos="5.10" departSpeed="0.00" departDelay="0.00" arrival="301.00" arrivalLane="road_1_1_3_0" arrivalPos="586.40" arrivalSpeed="11.86" duration="301.00" routeLength="1979.60" waitingTime="117.00" waitingCount="1" stopTime="0.00" timeLoss="135.71" rerouteNo="0" devices="tripinfo_3" vType="DEFAULT_VEHTYPE" speedFactor="1.08" vaporized=""/>
    <tripinfo id="145" depart="182.00" departLane="road_4_0_1_0" departPos="5.10" departSpeed="0.00" departDelay="0.00" arrival="301.00" arrivalLane="road_4_1_0_0" arrivalPos="786.40" arrivalSpeed="11.52" duration="119.00" routeLength="1376.73" waitingTime="0.00" waitingCount="0" stopTime="0.00" timeLoss="9.52" rerouteNo="0" devices="tripinfo_145" vType="DEFAULT_VEHTYPE" speedFactor="1.14" vaporized=""/>
    <tripinfo id="98" depart="117.00" departLane="road_5_3_2_0" departPos="5.10" departSpeed="0.00" departDelay="0.00" arrival="306.00" arrivalLane="road_4_4_0_0" arrivalPos="786.40" arrivalSpeed="11.44" duration="189.00" routeLength="2158.56" waitingTime="0.00" waitingCount="0" stopTime="0.00" timeLoss="14.37" rerouteNo="0" devices="tripinfo_98" vType="DEFAULT_VEHTYPE" speedFactor="1.12" vaporized=""/>
    <tripinfo id="155" depart="190.00" departLane="road_0_1_0_0" departPos="5.10" departSpeed="0.00" departDelay="0.00" arrival="311.00" arrivalLane="road_1_1_3_1" arrivalPos="586.40" arrivalSpeed="12.27" duration="121.00" routeLength="1376.73" waitingTime="0.00" waitingCount="0" stopTime="0.00" timeLoss="9.41" rerouteNo="0" devices="tripinfo_155" vType="DEFAULT_VEHTYPE" speedFactor="1.12" vaporized=""/>
    <tripinfo id="20" depart="21.00" departLane="road_5_4_2_0" departPos="5.10" departSpeed="0.00" departDelay="0.00" arrival="313.00" arrivalLane="road_3_4_1_0" arrivalPos="586.40" arrivalSpeed="11.14" duration="292.00" routeLength="2176.90" waitingTime="75.00" waitingCount="1" stopTime="0.00" timeLoss="98.63" rerouteNo="0" devices="tripinfo_20" vType="DEFAULT_VEHTYPE" speedFactor="1.02" vaporized=""/>
    <tripinfo id="139" depart="170.00" departLane="road_0_1_0_0" departPos="5.10" departSpeed="0.00" departDelay="0.00" arrival="313.00" arrivalLane="road_1_1_3_0" arrivalPos="586.40" arrivalSpeed="9.73" duration="143.00" routeLength="1376.73" waitingTime="0.00" waitingCount="0" stopTime="0.00" timeLoss="11.90" rerouteNo="0" devices="tripinfo_139" vType="DEFAULT_VEHTYPE" speedFactor="0.95" vaporized=""/>
    <tripinfo id="154" depart="189.00" departLane="road_5_4_2_0" departPos="5.10" departSpeed="0.00" departDelay="0.00" arrival="318.00" arrivalLane="road_4_4_1_0" arrivalPos="586.40" arrivalSpeed="11.00" duration="129.00" routeLength="1376.73" waitingTime="0.00" waitingCount="0" stopTime="0.00" timeLoss="11.86" rerouteNo="0" devices="tripinfo_154" vType="DEFAULT_VEHTYPE" speedFactor="1.06" vaporized=""/>
    <tripinfo id="70" depart="84.00" departLane="road_5_4_2_0" departPos="5.10" departSpeed="0.00" departDelay="0.00" arrival="325.00" arrivalLane="road_3_4_1_0" arrivalPos="586.40" arrivalSpeed="10.69" duration="241.00" routeLength="2176.90" waitingTime="23.00" waitingCount="1" stopTime="0.00" timeLoss="48.17" rerouteNo="0" devices="tripinfo_70" vType="DEFAULT_VEHTYPE" speedFactor="1.02" vaporized=""/>
    <tripinfo id="170" depart="210.00" departLane="road_0_1_0_0" departPos="5.10" departSpeed="0.00" departDelay="0.00" arrival="335.00" arrivalLane="road_1_1_3_0" arrivalPos="586.40" arrivalSpeed="11.74" duration="125.00" routeLength="1376.73" waitingTime="0.00" waitingCount="0" stopTime="0.00" timeLoss="10.34" rerouteNo="0" devices="tripinfo_170" vType="DEFAULT_VEHTYPE" speedFactor="1.09" vaporized=""/>
    <tripinfo id="105" depart="130.00" departLane="road_4_0_1_0" departPos="5.10" departSpeed="0.00" departDelay="0.00" arrival="353.00" arrivalLane="road_4_2_0_0" arrivalPos="786.40" arrivalSpeed="11.58" duration="223.00" routeLength="1976.90" waitingTime="30.00" waitingCount="2" stopTime="0.00" timeLoss="56.37" rerouteNo="0" devices="tripinfo_105" vType="DEFAULT_VEHTYPE" speedFactor="1.07" vaporized=""/>
    <tripinfo id="126" depart="156.00" departLane="road_4_0_1_0" departPos="5.10" departSpeed="0.00" departDelay="0.00" arrival="358.00" arrivalLane="road_4_2_0_0" arrivalPos="786.40" arrivalSpeed="10.67" duration="202.00" routeLength="1976.90" waitingTime="3.00" waitingCount="1" stopTime="0.00" timeLoss="28.71" rerouteNo="0" devices="tripinfo_126" vType="DEFAULT_VEHTYPE" speedFactor="1.03" vaporized=""/>
    <tripinfo id="192" depart="238.00" departLane="road_5_4_2_0" departPos="5.10" departSpeed="0.00" departDelay="0.00" arrival="369.00" arrivalLane="road_4_4_1_0" arrivalPos="586.40" arrivalSpeed="11.93" duration="131.00" routeLength="1376.73" waitingTime="0.00" waitingCount="0" stopTime="0.00" timeLoss="16.83" rerouteNo="0" devices="tripinfo_192" vType="DEFAULT_VEHTYPE" speedFactor="1.10" vaporized=""/>
    <tripinfo id="193" depart="240.00" departLane="road_0_1_0_0" departPos="5.10" departSpeed="0.00" departDelay="0.00" arrival="369.00" arrivalLane="road_1_1_3_0" arrivalPos="586.40" arrivalSpeed="11.59" duration="129.00" routeLength="1376.73" waitingTime="0.00" waitingCount="0" stopTime="0.00" timeLoss="12.57" rerouteNo="0" devices="tripinfo_193" vType="DEFAULT_VEHTYPE" speedFactor="1.07" vaporized=""/>
    <tripinfo id="55" depart="65.00" departLane="road_5_3_2_0" departPos="5.10" departSpeed="0.00" departDelay="0.00" arrival="374.00" arrivalLane="road_3_4_1_0" arrivalPos="586.40" arrivalSpeed="10.28" duration="309.00" routeLength="2779.77" waitingTime="33.00" waitingCount="1" stopTime="0.00" timeLoss="57.06" rerouteNo="0" devices="tripinfo_55" vType="DEFAULT_VEHTYPE" speedFactor="1.00" vaporized=""/>
    <tripinfo id="6" depart="0.00" departLane="road_1_5_3_0" departPos="5.10" departSpeed="0.00" departDelay="0.00" arrival="375.00" arrivalLane="road_1_2_2_0" arrivalPos="786.40" arrivalSpeed="11.31" duration="375.00" routeLength="2577.07" waitingTime="132.00" waitingCount="1" stopTime="0.00" timeLoss="152.67" rerouteNo="0" devices="tripinfo_6" vType="DEFAULT_VEHTYPE" speedFactor="1.05" vaporized=""/>
    <tripinfo id="147" depart="182.00" departLane="road_5_3_2_0" departPos="5.10" departSpeed="0.00" departDelay="0.00" arrival="376.00" arrivalLane="road_4_4_1_0" arrivalPos="586.40" arrivalSpeed="11.03" duration="194.00" routeLength="1979.60" waitingTime="0.00" waitingCount="0" stopTime="0.00" timeLoss="15.16" rerouteNo="0" devices="tripinfo_147" vType="DEFAULT_VEHTYPE" speedFactor="1.00" vaporized=""/>
    <tripinfo id="196" depart="245.00" departLane="road_5_4_2_0" departPos="5.10" departSpeed="0.00" departDelay="0.00" arrival="377.00" arrivalLane="road_4_4_1_1" arrivalPos="586.40" arrivalSpeed="11.37" duration="132.00" routeLength="1376.73" waitingTime="0.00" waitingCount="0" stopTime="0.00" timeLoss="10.72" rerouteNo="0" devices="tripinfo_196" vType="DEFAULT_VEHTYPE" speedFactor="1.03" vaporized=""/>
    <tripinfo id="76" depart="91.00" departLane="road_5_3_2_0" departPos="5.10" departSpeed="0.00" departDelay="0.00" arrival="379.00" arrivalLane="road_3_4_1_0" arrivalPos="586.40" arrivalSpeed="11.15" duration="288.00" routeLength="2779.77" waitingTime="13.00" waitingCount="1" stopTime="0.00" timeLoss="44.66" rerouteNo="0" devices="tripinfo_76" vType="DEFAULT_VEHTYPE" speedFactor="1.03" vaporized=""/>
    <tripinfo id="58" depart="69.00" departLane="road_1_5_3_0" departPos="5.10" departSpeed="0.00" departDelay="0.00" arrival="382.00" arrivalLane="road_1_3_2_0" arrivalPos="786.40" arrivalSpeed="10.75" duration="313.00" routeLength="1976.90" waitingTime="120.00" waitingCount="1" stopTime="0.00" timeLoss="137.93" rerouteNo="0" devices="tripinfo_58" vType="DEFAULT_VEHTYPE" speedFactor="1.02" vaporized=""/>
    <tripinfo id="95" depart="115.00" departLane="road_1_5_3_0" departPos="5.10" departSpeed="0.00" departDelay="0.00" arrival="390.00" arrivalLane="road_1_3_2_0" arrivalPos="786.40" arrivalSpeed="10.57" duration="275.00" routeLength="1976.90" waitingTime="78.00" waitingCount="1" stopTime="0.00" timeLoss="105.47" rerouteNo="0" devices="tripinfo_95" vType="DEFAULT_VEHTYPE" speedFactor="1.06" vaporized=""/>
    <tripinfo id="156" depart="192.00" departLane="road_0_4_0_0" departPos="5.10" departSpeed="0.00" departDelay="0.00" arrival="390.00" arrivalLane="road_1_3_2_2" arrivalPos="786.40" arrivalSpeed="12.56" duration="198.00" routeLength="2158.56" waitingTime="1.00" waitingCount="1" stopTime="0.00" timeLoss="31.86" rerouteNo="0" devices="tripinfo_156" vType="DEFAULT_VEHTYPE" speedFactor="1.18" vaporized=""/>
    <tripinfo id="78" depart="92.00" departLane="road_1_5_3_0" departPos="5.10" departSpeed="0.00" departDelay="0.00" arrival="391.00" arrivalLane="road_1_3_2_1" arrivalPos="786.40" arrivalSpeed="10.09" duration="299.00" routeLength="1976.90" waitingTime="97.00" waitingCount="1" stopTime="0.00" timeLoss="121.91" rerouteNo="0" devices="tripinfo_78" vType="DEFAULT_VEHTYPE" speedFactor="1.01" vaporized=""/>
    <tripinfo id="27" depart="28.00" departLane="road_0_4_0_0" departPos="5.10" departSpeed="0.00" departDelay="0.00" arrival="396.00" arrivalLane="road_1_2_2_0" arrivalPos="786.40" arrivalSpeed="10.22" duration="368.00" routeLength="2761.43" waitingTime="68.00" waitingCount="1" stopTime="0.00" timeLoss="104.77" rerouteNo="0" devices="tripinfo_27" vType="DEFAULT_VEHTYPE" speedFactor="0.95" vaporized=""/>
    <tripinfo id="149" depart="184.00" departLane="road_1_5_3_0" departPos="5.10" departSpeed="0.00" departDelay="0.00" arrival="397.00" arrivalLane="road_1_3_2_0" arrivalPos="786.40" arrivalSpeed="10.87" duration="213.00" routeLength="1976.90" waitingTime="12.00" waitingCount="1" stopTime="0.00" timeLoss="40.32" rerouteNo="0" devices="tripinfo_149" vType="DEFAULT_VEHTYPE" speedFactor="1.04" vaporized=""/>
    <tripinfo id="209" depart="260.00" departLane="road_4_0_1_0" departPos="5.10" departSpeed="0.00" departDelay="0.00" arrival="398.00" arrivalLane="road_4_1_0_0" arrivalPos="786.40" arrivalSpeed="10.77" duration="138.00" routeLength="1376.73" waitingTime="0.00" waitingCount="0" stopTime="0.00" timeLoss="10.88" rerouteNo="0" devices="tripinfo_209" vType="DEFAULT_VEHTYPE" speedFactor="0.98" vaporized=""/>
    <tripinfo id="56" depart="68.00" departLane="road_0_4_0_0" departPos="5.10" departSpeed="0.00" departDelay="0.00" arrival="405.00" arrivalLane="road_1_2_2_0" arrivalPos="786.40" arrivalSpeed="9.47" duration="337.00" routeLength="2761.43" waitingTime="29.00" waitingCount="1" stopTime="0.00" timeLoss="58.93" rerouteNo="0" devices="tripinfo_56" vType="DEFAULT_VEHTYPE" speedFactor="0.90" vaporized=""/>
    <tripinfo id="42" depart="48.00" departLane="road_0_4_0_0" departPos="5.10" departSpeed="0.00" departDelay="0.00" arrival="406.00" arrivalLane="road_2_4_1_0" arrivalPos="586.40" arrivalSpeed="11.56" duration="358.00" routeLength="2197.72" waitingTime="149.00" waitingCount="2" stopTime="0.00" timeLoss="176.63" rerouteNo="0" devices="tripinfo_42" vType="DEFAULT_VEHTYPE" speedFactor="1.09" vaporized=""/>
    <tripinfo id="201" depart="252.00" departLane="road_5_4_2_0" departPos="5.10" departSpeed="0.00" departDelay="0.00" arrival="408.00" arrivalLane="road_4_4_1_0" arrivalPos="586.40" arrivalSpeed="8.45" duration="156.00" routeLength="1376.73" waitingTime="0.00" waitingCount="0" stopTime="0.00" timeLoss="13.49" rerouteNo="0" devices="tripinfo_201" vType="DEFAULT_VEHTYPE" speedFactor="0.87" vaporized=""/>
    <tripinfo id="12" depart="10.00" departLane="road_0_1_0_0" departPos="5.10" departSpeed="0.00" departDelay="0.00" arrival="413.00" arrivalLane="road_3_1_3_0" arrivalPos="586.40" arrivalSpeed="11.20" duration="403.00" routeLength="2977.07" waitingTime="118.00" waitingCount="2" stopTime="0.00" timeLoss="145.51" rerouteNo="0" devices="tripinfo_12" vType="DEFAULT_VEHTYPE" speedFactor="1.05" vaporized=""/>
    <tripinfo id="118" depart="144.00" departLane="road_0_4_0_0" departPos="5.10" departSpeed="0.00" departDelay="0.00" arrival="414.00" arrivalLane="road_1_4_1_1" arrivalPos="586.40" arrivalSpeed="9.98" duration="270.00" routeLength="1397.55" waitingTime="127.00" waitingCount="1" stopTime="0.00" timeLoss="142.91" rerouteNo="0" devices="tripinfo_118" vType="DEFAULT_VEHTYPE" speedFactor="0.99" vaporized=""/>
    <tripinfo id="93" depart="112.00" departLane="road_0_4_0_0" departPos="5.10" departSpeed="0.00" departDelay="0.00" arrival="415.00" arrivalLane="road_1_4_1_0" arrivalPos="586.40" arrivalSpeed="9.33" duration="303.00" routeLength="1397.55" waitingTime="152.00" waitingCount="1" stopTime="0.00" timeLoss="166.48" rerouteNo="0" devices="tripinfo_93" vType="DEFAULT_VEHTYPE" speedFactor="0.92" vaporized=""/>
    <tripinfo id="125" depart="154.00" departLane="road_5_4_2_0" departPos="5.10" departSpeed="0.00" departDelay="0.00" arrival="415.00" arrivalLane="road_3_4_1_0" arrivalPos="586.40" arrivalSpeed="12.75" duration="261.00" routeLength="2176.90" waitingTime="63.00" waitingCount="1" stopTime="0.00" timeLoss="90.11" rerouteNo="0" devices="tripinfo_125" vType="DEFAULT_VEHTYPE" speedFactor="1.15" vaporized=""/>
    <tripinfo id="10" depart="7.00" departLane="road_5_4_2_0" departPos="5.10" departSpeed="0.00" departDelay="0.00" arrival="416.00" arrivalLane="road_2_4_1_1" arrivalPos="586.40" arrivalSpeed="11.98" duration="409.00" routeLength="2977.07" waitingTime="127.00" waitingCount="3" stopTime="0.00" timeLoss="162.39" rerouteNo="0" devices="tripinfo_10" vType="DEFAULT_VEHTYPE" speedFactor="1.09" vaporized=""/>
    <tripinfo id="46" depart="52.00" departLane="road_0_4_0_0" departPos="5.10" departSpeed="0.00" departDelay="0.00" arrival="416.00" arrivalLane="road_2_4_1_0" arrivalPos="586.40" arrivalSpeed="10.84" duration="364.00" routeLength="2197.72" waitingTime="132.00" waitingCount="2" stopTime="0.00" timeLoss="164.77" rerouteNo="0" devices="tripinfo_46" vType="DEFAULT_VEHTYPE" speedFactor="1.00" vaporized=""/>
    <tripinfo id="89" depart="110.00" departLane="road_0_1_0_0" departPos="5.10" departSpeed="0.00" departDelay="0.00" arrival="416.00" arrivalLane="road_2_1_3_0" arrivalPos="586.40" arrivalSpeed="10.94" duration="306.00" routeLength="2176.90" waitingTime="92.00" waitingCount="1" stopTime="0.00" timeLoss="113.25" rerouteNo="0" devices="tripinfo_89" vType="DEFAULT_VEHTYPE" speedFactor="1.02" vaporized=""/>
    <tripinfo id="130" depart="160.00" departLane="road_0_4_0_0" departPos="5.10" departSpeed="0.00" departDelay="0.00" arrival="416.00" arrivalLane="road_1_4_1_2" arrivalPos="586.40" arrivalSpeed="11.14" duration="256.00" routeLength="1397.55" waitingTime="118.00" waitingCount="1" stopTime="0.00" timeLoss="133.42" rerouteNo="0" devices="tripinfo_130" vType="DEFAULT_VEHTYPE" speedFactor="1.03" vaporized=""/>
    <tripinfo id="97" depart="117.00" departLane="road_4_0_1_0" departPos="5.10" departSpeed="0.00" departDelay="0.00" arrival="417.00" arrivalLane="road_3_1_3_0" arrivalPos="586.40" arrivalSpeed="8.79" duration="300.00" routeLength="1994.86" waitingTime="77.00" waitingCount="2" stopTime="0.00" timeLoss="101.38" rerouteNo="0" devices="tripinfo_97" vType="DEFAULT_VEHTYPE" speedFactor="0.91" vaporized=""/>
    <tripinfo id="164" depart="204.00" departLane="road_0_4_0_0" departPos="5.10" departSpeed="0.00" departDelay="0.00" arrival="417.00" arrivalLane="road_1_4_1_1" arrivalPos="586.40" arrivalSpeed="11.24" duration="213.00" routeLength="1397.55" waitingTime="76.00" waitingCount="1" stopTime="0.00" timeLoss="93.14" rerouteNo="0" devices="tripinfo_164" vType="DEFAULT_VEHTYPE" speedFactor="1.05" vaporized=""/>
    <tripinfo id="29" depart="32.00" departLane="road_0_4_0_0" departPos="5.10" departSpeed="0.00" departDelay="0.00" arrival="418.00" arrivalLane="road_2_4_1_0" arrivalPos="586.40" arrivalSpeed="9.84" duration="386.00" routeLength="2197.72" waitingTime="145.00" waitingCount="2" stopTime="0.00" timeLoss="173.33" rerouteNo="0" devices="tripinfo_29" vType="DEFAULT_VEHTYPE" speedFactor="0.93" vaporized=""/>
    <tripinfo id="43" depart="49.00" departLane="road_5_4_2_0" departPos="5.10" departSpeed="0.00" departDelay="0.00" arrival="419.00" arrivalLane="road_2_4_1_1" arrivalPos="586.40" arrivalSpeed="11.43" duration="370.00" routeLength="2977.07" waitingTime="78.00" waitingCount="2" stopTime="0.00" timeLoss="111.05" rerouteNo="0" devices="tripinfo_43" vType="DEFAULT_VEHTYPE" speedFactor="1.04" vaporized=""/>
    <tripinfo id="213" depart="264.00" departLane="road_0_4_0_0" departPos="5.10" departSpeed="0.00" departDelay="0.00" arrival="419.00" arrivalLane="road_1_4_1_1" arrivalPos="586.40" arrivalSpeed="11.80" duration="155.00" routeLength="1397.55" waitingTime="18.00" waitingCount="1" stopTime="0.00" timeLoss="40.41" rerouteNo="0" devices="tripinfo_213" vType="DEFAULT_VEHTYPE" speedFactor="1.10" vaporized=""/>
    <tripinfo id="115" depart="140.00" departLane="road_0_4_0_0" departPos="5.10" departSpeed="0.00" departDelay="0.00" arrival="420.00" arrivalLane="road_1_4_1_0" arrivalPos="586.40" arrivalSpeed="9.05" duration="280.00" routeLength="1397.55" waitingTime="124.00" waitingCount="1" stopTime="0.00" timeLoss="143.20" rerouteNo="0" devices="tripinfo_115" vType="DEFAULT_VEHTYPE" speedFactor="0.92" vaporized=""/>
    <tripinfo id="14" depart="13.00" departLane="road_4_0_1_0" departPos="5.10" departSpeed="0.00" departDelay="0.00" arrival="421.00" arrivalLane="road_1_1_3_0" arrivalPos="586.40" arrivalSpeed="10.93" duration="408.00" routeLength="3597.83" waitingTime="48.00" waitingCount="2" stopTime="0.00" timeLoss="80.40" rerouteNo="0" devices="tripinfo_14" vType="DEFAULT_VEHTYPE" speedFactor="0.99" vaporized=""/>
    <tripinfo id="113" depart="140.00" departLane="road_0_1_0_0" departPos="5.10" departSpeed="0.00" departDelay="0.00" arrival="422.00" arrivalLane="road_2_1_3_0" arrivalPos="586.40" arrivalSpeed="10.98" duration="282.00" routeLength="2176.90" waitingTime="65.00" waitingCount="1" stopTime="0.00" timeLoss="87.13" rerouteNo="0" devices="tripinfo_113" vType="DEFAULT_VEHTYPE" speedFactor="1.01" vaporized=""/>
    <tripinfo id="94" depart="115.00" departLane="road_1_0_1_0" departPos="5.10" departSpeed="0.00" departDelay="0.00" arrival="423.00" arrivalLane="road_3_1_3_0" arrivalPos="586.40" arrivalSpeed="11.46" duration="308.00" routeLength="2761.43" waitingTime="47.00" waitingCount="1" stopTime="0.00" timeLoss="79.41" rerouteNo="0" devices="tripinfo_94" vType="DEFAULT_VEHTYPE" speedFactor="1.09" vaporized=""/>
    <tripinfo id="114" depart="140.00" departLane="road_5_4_2_0" departPos="5.10" departSpeed="0.00" departDelay="0.00" arrival="423.00" arrivalLane="road_3_4_1_0" arrivalPos="586.40" arrivalSpeed="11.03" duration="283.00" routeLength="2176.90" waitingTime="68.00" waitingCount="1" stopTime="0.00" timeLoss="103.42" rerouteNo="0" devices="tripinfo_114" vType="DEFAULT_VEHTYPE" speedFactor="1.10" vaporized=""/>
    <tripinfo id="87" depart="105.00" departLane="road_5_4_2_0" departPos="5.10" departSpeed="0.00" departDelay="0.00" arrival="426.00" arrivalLane="road_2_4_1_0" arrivalPos="586.40" arrivalSpeed="10.32" duration="321.00" routeLength="2977.07" waitingTime="26.00" waitingCount="2" stopTime="0.00" timeLoss="62.55" rerouteNo="0" devices="tripinfo_87" vType="DEFAULT_VEHTYPE" speedFactor="1.04" vaporized=""/>
    <tripinfo id="225" depart="280.00" departLane="road_5_4_2_0" departPos="5.10" departSpeed="0.00" departDelay="0.00" arrival="426.00" arrivalLane="road_4_4_1_0" arrivalPos="586.40" arrivalSpeed="9.68" duration="146.00" routeLength="1376.73" waitingTime="0.00" waitingCount="0" stopTime="0.00" timeLoss="17.32" rerouteNo="0" devices="tripinfo_225" vType="DEFAULT_VEHTYPE" speedFactor="0.97" vaporized=""/>
    <tripinfo id="159" depart="196.00" departLane="road_5_4_2_0" departPos="5.10" departSpeed="0.00" departDelay="0.00" arrival="427.00" arrivalLane="road_3_4_1_0" arrivalPos="586.40" arrivalSpeed="12.37" duration="231.00" routeLength="2176.90" waitingTime="25.00" waitingCount="1" stopTime="0.00" timeLoss="58.40" rerouteNo="0" devices="tripinfo_159" vType="DEFAULT_VEHTYPE" speedFactor="1.14" vaporized=""/>