<?xml version="1.0" encoding="UTF-8"?>

<!-- generated on 2023-06-28 09:10:53 by Eclipse SUMO sumo Version 1.17.0
<configuration xmlns:xsi="http://www.w3.org/2001/XMLSchema-instance" xsi:noNamespaceSchemaLocation="http://sumo.dlr.de/xsd/sumoConfiguration.xsd">

    <input>
        <net-file value="/mnt/workspace/wangding/Desktop/TransWorldNG/experiment/bologna_clean/clean.net.xml"/>
        <route-files value="/mnt/workspace/wangding/Desktop/TransWorldNG/experiment/bologna_clean/joined.rou.xml"/>
        <additional-files value="/mnt/workspace/wangding/Desktop/TransWorldNG/experiment/bologna_clean/joined_detectors.add.xml,/mnt/workspace/wangding/Desktop/TransWorldNG/experiment/bologna_clean/joined_vtypes.add.xml,/mnt/workspace/wangding/Desktop/TransWorldNG/experiment/bologna_clean/joined_tls.add.xml"/>
    </input>

    <output>
        <tripinfo-output value="/mnt/workspace/wangding/Desktop/TransWorldNG/experiment/bologna_clean/tripinfo.xml"/>
        <save-state.prefix value="/mnt/workspace/wangding/Desktop/TransWorldNG/experiment/bologna_clean/state"/>
    </output>

    <time>
        <end value="1"/>
        <step-length value="1.0"/>
    </time>

    <report>
        <log value="/mnt/workspace/wangding/Desktop/TransWorldNG/experiment/bologna_clean/sumo_log.txt"/>
        <no-step-log value="true"/>
    </report>

    <emissions>
        <phemlight-path value="/mnt/workspace/wangding/Desktop/TransWorldNG/experiment/bologna_clean/./PHEMlight/"/>
    </emissions>

    <traci_server>
        <remote-port value="35921"/>
    </traci_server>

</configuration>
-->

<tripinfos xmlns:xsi="http://www.w3.org/2001/XMLSchema-instance" xsi:noNamespaceSchemaLocation="http://sumo.dlr.de/xsd/tripinfo_file.xsd">
    <tripinfo id="Pertini_20_1" depart="2.00" departLane="b63[0]_2" departPos="0.00" departSpeed="0.00" departDelay="0.00" arrival="73.00" arrivalLane="b4[1][1][1]_1" arrivalPos="187.19" arrivalSpeed="13.89" duration="71.00" routeLength="893.04" waitingTime="0.00" waitingCount="0" stopTime="0.00" timeLoss="7.56" rerouteNo="0" devices="tripinfo_Pertini_20_1" vType="passenger2b" speedFactor="1.02" vaporized=""/>
    <tripinfo id="Pertini_20_0" depart="0.00" departLane="b63[0]_1" departPos="0.00" departSpeed="0.00" departDelay="0.00" arrival="74.00" arrivalLane="b4[1][1][1]_0" arrivalPos="187.19" arrivalSpeed="14.83" duration="74.00" routeLength="893.04" waitingTime="4.00" waitingCount="1" stopTime="0.00" timeLoss="14.83" rerouteNo="0" devices="tripinfo_Pertini_20_0" vType="passenger2b" speedFactor="1.09" vaporized=""/>
    <tripinfo id="Pertini_20_2" depart="4.00" departLane="b63[0]_1" departPos="0.00" departSpeed="0.00" departDelay="0.00" arrival="79.00" arrivalLane="b4[1][1][1]_0" arrivalPos="187.19" arrivalSpeed="12.40" duration="75.00" routeLength="893.04" waitingTime="0.00" waitingCount="0" stopTime="0.00" timeLoss="6.51" rerouteNo="0" devices="tripinfo_Pertini_20_2" vType="passenger2b" speedFactor="0.95" vaporized=""/>
    <tripinfo id="Prati_Capraia_10_0" depart="0.00" departLane="b3[0]_0" departPos="0.00" departSpeed="0.00" departDelay="0.00" arrival="80.00" arrivalLane="b10_0" arrivalPos="235.74" arrivalSpeed="12.22" duration="80.00" routeLength="423.93" waitingTime="37.00" waitingCount="1" stopTime="0.00" timeLoss="46.76" rerouteNo="0" devices="tripinfo_Prati_Capraia_10_0" vType="passenger2b" speedFactor="0.92" vaporized=""/>
    <tripinfo id="Prati_Capraia_10_1" depart="4.00" departLane="b3[0]_0" departPos="0.00" departSpeed="0.00" departDelay="0.00" arrival="82.00" arrivalLane="b10_0" arrivalPos="235.74" arrivalSpeed="13.28" duration="78.00" routeLength="423.93" waitingTime="35.00" waitingCount="1" stopTime="0.00" timeLoss="45.67" rerouteNo="0" devices="tripinfo_Prati_Capraia_10_1" vType="passenger1" speedFactor="0.96" vaporized=""/>
    <tripinfo id="Pepoli_8_16" depart="27.00" departLane="a210_0" departPos="0.00" departSpeed="0.00" departDelay="0.00" arrival="82.00" arrivalLane="a134b_0" arrivalPos="161.28" arrivalSpeed="15.01" duration="55.00" routeLength="708.05" waitingTime="0.00" waitingCount="0" stopTime="0.00" timeLoss="7.70" rerouteNo="0" devices="tripinfo_Pepoli_8_16" vType="passenger1" speedFactor="1.10" vaporized=""/>
    <tripinfo id="Prati_Capraia_10_7" depart="34.00" departLane="b3[0]_0" departPos="0.00" departSpeed="0.00" departDelay="0.00" arrival="84.00" arrivalLane="b10_0" arrivalPos="235.74" arrivalSpeed="13.18" duration="50.00" routeLength="423.93" waitingTime="7.00" waitingCount="1" stopTime="0.00" timeLoss="19.63" rerouteNo="0" devices="tripinfo_Prati_Capraia_10_7" vType="passenger1" speedFactor="1.01" vaporized=""/>
    <tripinfo id="Certosa_9_0" depart="0.00" departLane="b22[0]_1" departPos="0.00" departSpeed="0.00" departDelay="0.00" arrival="85.00" arrivalLane="b2[1][1][1]b_1" arrivalPos="324.73" arrivalSpeed="16.25" duration="85.00" routeLength="596.78" waitingTime="37.00" waitingCount="1" stopTime="0.00" timeLoss="48.43" rerouteNo="0" devices="tripinfo_Certosa_9_0" vType="passenger2b" speedFactor="1.20" vaporized=""/>
    <tripinfo id="Pertini_20_12" depart="25.00" departLane="b63[0]_2" departPos="0.00" departSpeed="0.00" departDelay="0.00" arrival="90.00" arrivalLane="b4[1][1][1]_1" arrivalPos="187.19" arrivalSpeed="16.99" duration="65.00" routeLength="893.04" waitingTime="0.00" waitingCount="0" stopTime="0.00" timeLoss="12.60" rerouteNo="0" devices="tripinfo_Pertini_20_12" vType="passenger1" speedFactor="1.25" vaporized=""/>
    <tripinfo id="Pertini_20_9" depart="19.00" departLane="b63[0]_1" departPos="0.00" departSpeed="0.00" departDelay="0.00" arrival="91.00" arrivalLane="b4[1][1][1]_0" arrivalPos="187.19" arrivalSpeed="12.71" duration="72.00" routeLength="893.04" waitingTime="0.00" waitingCount="0" stopTime="0.00" timeLoss="6.12" rerouteNo="0" devices="tripinfo_Pertini_20_9" vType="passenger2b" speedFactor="0.98" vaporized=""/>
    <tripinfo id="Prati_Capraia_100_2" depart="9.00" departLane="b3[0]_1" departPos="0.00" departSpeed="0.00" departDelay="0.00" arrival="93.00" arrivalLane="b3[1]b_0" arrivalPos="252.60" arrivalSpeed="14.81" duration="84.00" routeLength="641.04" waitingTime="29.00" waitingCount="1" stopTime="0.00" timeLoss="40.85" rerouteNo="0" devices="tripinfo_Prati_Capraia_100_2" vType="passenger1" speedFactor="1.09" vaporized=""/>
    <tripinfo id="Pertini_20_7" depart="15.00" departLane="b63[0]_2" departPos="0.00" departSpeed="0.00" departDelay="0.00" arrival="95.00" arrivalLane="b4[1][1][1]_0" arrivalPos="187.19" arrivalSpeed="11.42" duration="80.00" routeLength="893.04" waitingTime="0.00" waitingCount="0" stopTime="0.00" timeLoss="6.61" rerouteNo="0" devices="tripinfo_Pertini_20_7" vType="passenger3" speedFactor="0.88" vaporized=""/>
    <tripinfo id="Pertini_20_10" depart="21.00" departLane="b63[0]_2" departPos="0.00" departSpeed="0.00" departDelay="0.00" arrival="96.00" arrivalLane="b4[1][1][1]_1" arrivalPos="187.19" arrivalSpeed="13.12" duration="75.00" routeLength="893.04" waitingTime="0.00" waitingCount="0" stopTime="0.00" timeLoss="6.93" rerouteNo="0" devices="tripinfo_Pertini_20_10" vType="passenger1" speedFactor="0.95" vaporized=""/>
    <tripinfo id="Pertini_20_11" depart="23.00" departLane="b63[0]_1" departPos="0.00" departSpeed="0.00" departDelay="0.00" arrival="96.00" arrivalLane="b4[1][1][1]_0" arrivalPos="187.19" arrivalSpeed="14.79" duration="73.00" routeLength="893.04" waitingTime="0.00" waitingCount="0" stopTime="0.00" timeLoss="14.20" rerouteNo="0" devices="tripinfo_Pertini_20_11" vType="passenger2b" speedFactor="1.10" vaporized=""/>
    <tripinfo id="Pertini_20_15" depart="32.00" departLane="b63[0]_2" departPos="0.00" departSpeed="0.00" departDelay="0.00" arrival="97.00" arrivalLane="b4[1][1][1]_1" arrivalPos="187.19" arrivalSpeed="14.94" duration="65.00" routeLength="893.04" waitingTime="0.00" waitingCount="0" stopTime="0.00" timeLoss="7.51" rerouteNo="0" devices="tripinfo_Pertini_20_15" vType="passenger1" speedFactor="1.12" vaporized=""/>
    <tripinfo id="Prati_Capraia_100_3" depart="14.00" departLane="b3[0]_0" departPos="0.00" departSpeed="0.00" departDelay="0.00" arrival="98.00" arrivalLane="b3[1]b_0" arrivalPos="252.60" arrivalSpeed="13.39" duration="84.00" routeLength="641.04" waitingTime="26.00" waitingCount="1" stopTime="0.00" timeLoss="37.37" rerouteNo="0" devices="tripinfo_Prati_Capraia_100_3" vType="passenger5" speedFactor="1.00" vaporized=""/>
    <tripinfo id="Pertini_20_14" depart="30.00" departLane="b63[0]_1" departPos="0.00" departSpeed="0.00" departDelay="0.00" arrival="98.00" arrivalLane="b4[1][1][1]_0" arrivalPos="187.19" arrivalSpeed="13.59" duration="68.00" routeLength="893.04" waitingTime="0.00" waitingCount="0" stopTime="0.00" timeLoss="6.94" rerouteNo="0" devices="tripinfo_Pertini_20_14" vType="passenger4" speedFactor="1.06" vaporized=""/>
    <tripinfo id="Prati_Capraia_100_5" depart="24.00" departLane="b3[0]_0" departPos="0.00" departSpeed="0.00" departDelay="0.00" arrival="99.00" arrivalLane="b3[1]b_1" arrivalPos="252.60" arrivalSpeed="14.91" duration="75.00" routeLength="641.04" waitingTime="19.00" waitingCount="1" stopTime="0.00" timeLoss="31.46" rerouteNo="0" devices="tripinfo_Prati_Capraia_100_5" vType="passenger2b" speedFactor="1.08" vaporized=""/>
    <tripinfo id="Prati_Capraia_100_4" depart="19.00" departLane="b3[0]_1" departPos="0.00" departSpeed="0.00" departDelay="0.00" arrival="100.00" arrivalLane="b3[1]b_0" arrivalPos="252.60" arrivalSpeed="12.49" duration="81.00" routeLength="641.04" waitingTime="22.00" waitingCount="1" stopTime="0.00" timeLoss="33.29" rerouteNo="0" devices="tripinfo_Prati_Capraia_100_4" vType="passenger2b" speedFactor="0.98" vaporized=""/>
    <tripinfo id="Prati_Capraia_100_8" depart="38.00" departLane="b3[0]_1" departPos="0.00" departSpeed="0.00" departDelay="0.00" arrival="100.00" arrivalLane="b3[1]b_1" arrivalPos="252.60" arrivalSpeed="16.14" duration="62.00" routeLength="641.04" waitingTime="8.00" waitingCount="1" stopTime="0.00" timeLoss="22.73" rerouteNo="0" devices="tripinfo_Prati_Capraia_100_8" vType="passenger4" speedFactor="1.18" vaporized=""/>
    <tripinfo id="Pepoli_8_21" depart="37.00" departLane="a210_0" departPos="0.00" departSpeed="0.00" departDelay="1.00" arrival="101.00" arrivalLane="a134b_0" arrivalPos="161.28" arrivalSpeed="11.29" duration="64.00" routeLength="708.05" waitingTime="0.00" waitingCount="0" stopTime="0.00" timeLoss="6.25" rerouteNo="0" devices="tripinfo_Pepoli_8_21" vType="passenger2b" speedFactor="0.89" vaporized=""/>
    <tripinfo id="Pertini_20_16" depart="34.00" departLane="b63[0]_1" departPos="0.00" departSpeed="0.00" departDelay="0.00" arrival="102.00" arrivalLane="b4[1][1][1]_0" arrivalPos="187.19" arrivalSpeed="14.38" duration="68.00" routeLength="893.04" waitingTime="0.00" waitingCount="0" stopTime="0.00" timeLoss="5.50" rerouteNo="0" devices="tripinfo_Pertini_20_16" vType="passenger3" speedFactor="1.04" vaporized=""/>
    <tripinfo id="Gandhi_80_11" depart="17.00" departLane="b1[0]_0" departPos="0.00" departSpeed="0.00" departDelay="0.00" arrival="103.00" arrivalLane="b21_0" arrivalPos="115.99" arrivalSpeed="11.94" duration="86.00" routeLength="532.81" waitingTime="35.00" waitingCount="1" stopTime="0.00" timeLoss="44.17" rerouteNo="0" devices="tripinfo_Gandhi_80_11" vType="passenger1" speedFactor="0.93" vaporized=""/>
    <tripinfo id="Prati_Capraia_100_9" depart="43.00" departLane="b3[0]_0" departPos="0.00" departSpeed="0.00" departDelay="0.00" arrival="103.00" arrivalLane="b3[1]b_0" arrivalPos="252.60" arrivalSpeed="12.78" duration="60.00" routeLength="641.04" waitingTime="0.00" waitingCount="0" stopTime="0.00" timeLoss="12.64" rerouteNo="0" devices="tripinfo_Prati_Capraia_100_9" vType="passenger4" speedFactor="0.98" vaporized=""/>
    <tripinfo id="Prati_Capraia_100_10" depart="48.00" departLane="b3[0]_1" departPos="0.00" departSpeed="0.00" departDelay="0.00" arrival="105.00" arrivalLane="b3[1]b_1" arrivalPos="252.60" arrivalSpeed="12.67" duration="57.00" routeLength="641.04" waitingTime="0.00" waitingCount="0" stopTime="0.00" timeLoss="10.27" rerouteNo="0" devices="tripinfo_Prati_Capraia_100_10" vType="passenger1" speedFactor="1.00" vaporized=""/>
    <tripinfo id="Prati_Capraia_100_11" depart="53.00" departLane="b3[0]_0" departPos="0.00" departSpeed="0.00" departDelay="0.00" arrival="105.00" arrivalLane="b3[1]b_0" arrivalPos="252.60" arrivalSpeed="15.28" duration="52.00" routeLength="641.04" waitingTime="0.00" waitingCount="0" stopTime="0.00" timeLoss="9.21" rerouteNo="0" devices="tripinfo_Prati_Capraia_100_11" vType="passenger3" speedFactor="1.10" vaporized=""/>
    <tripinfo id="Prati_Capraia_100_12" depart="58.00" departLane="b3[0]_1" departPos="0.00" departSpeed="0.00" departDelay="0.00" arrival="106.00" arrivalLane="b3[1]b_0" arrivalPos="252.60" arrivalSpeed="15.01" duration="48.00" routeLength="641.04" waitingTime="0.00" waitingCount="0" stopTime="0.00" timeLoss="7.19" rerouteNo="0" devices="tripinfo_Prati_Capraia_100_12" vType="passenger4" speedFactor="1.14" vaporized=""/>
    <tripinfo id="Pertini_20_17" depart="36.00" departLane="b63[0]_2" departPos="0.00" departSpeed="0.00" departDelay="0.00" arrival="110.00" arrivalLane="b4[1][1][1]_0" arrivalPos="187.19" arrivalSpeed="13.05" duration="74.00" routeLength="893.04" waitingTime="0.00" waitingCount="0" stopTime="0.00" timeLoss="6.76" rerouteNo="0" devices="tripinfo_Pertini_20_17" vType="passenger2b" speedFactor="0.97" vaporized=""/>
    <tripinfo id="Pertini_20_18" depart="38.00" departLane="b63[0]_1" departPos="0.00" departSpeed="0.00" departDelay="0.00" arrival="111.00" arrivalLane="b4[1][1][1]_1" arrivalPos="187.19" arrivalSpeed="13.44" duration="73.00" routeLength="893.04" waitingTime="0.00" waitingCount="0" stopTime="0.00" timeLoss="6.62" rerouteNo="0" devices="tripinfo_Pertini_20_18" vType="passenger3" speedFactor="0.98" vaporized=""/>
    <tripinfo id="Pertini_20_22" depart="47.00" departLane="b63[0]_2" departPos="0.00" departSpeed="0.00" departDelay="0.00" arrival="111.00" arrivalLane="b4[1][1][1]_0" arrivalPos="187.19" arrivalSpeed="15.20" duration="64.00" routeLength="893.04" waitingTime="0.00" waitingCount="0" stopTime="0.00" timeLoss="9.40" rerouteNo="0" devices="tripinfo_Pertini_20_22" vType="passenger1" speedFactor="1.18" vaporized=""/>
    <tripinfo id="Prati_Capraia_100_13" depart="63.00" departLane="b3[0]_0" departPos="0.00" departSpeed="0.00" departDelay="0.00" arrival="112.00" arrivalLane="b3[1]b_0" arrivalPos="252.60" arrivalSpeed="13.88" duration="49.00" routeLength="641.04" waitingTime="0.00" waitingCount="0" stopTime="0.00" timeLoss="5.47" rerouteNo="0" devices="tripinfo_Prati_Capraia_100_13" vType="passenger2a" speedFactor="1.07" vaporized=""/>
    <tripinfo id="Gandhi_80_45" depart="70.00" departLane="b1[0]_0" departPos="0.00" departSpeed="0.00" departDelay="0.00" arrival="114.00" arrivalLane="b21_0" arrivalPos="115.99" arrivalSpeed="14.29" duration="44.00" routeLength="532.81" waitingTime="0.00" waitingCount="0" stopTime="0.00" timeLoss="8.11" rerouteNo="0" devices="tripinfo_Gandhi_80_45" vType="passenger4" speedFactor="1.08" vaporized=""/>
    <tripinfo id="Prati_Capraia_30_6" depart="29.00" departLane="b3[0]_1" departPos="0.00" departSpeed="0.00" departDelay="0.00" arrival="115.00" arrivalLane="b70_0" arrivalPos="82.07" arrivalSpeed="12.72" duration="86.00" routeLength="811.56" waitingTime="13.00" waitingCount="1" stopTime="0.00" timeLoss="27.52" rerouteNo="0" devices="tripinfo_Prati_Capraia_30_6" vType="ignoring2b" speedFactor="1.00" vaporized=""/>
    <tripinfo id="Pertini_20_21" depart="45.00" departLane="b63[0]_1" departPos="0.00" departSpeed="0.00" departDelay="0.00" arrival="120.00" arrivalLane="b4[1][1][1]_0" arrivalPos="187.19" arrivalSpeed="12.66" duration="75.00" routeLength="893.04" waitingTime="0.00" waitingCount="0" stopTime="0.00" timeLoss="6.56" rerouteNo="0" devices="tripinfo_Pertini_20_21" vType="passenger3" speedFactor="0.94" vaporized=""/>
    <tripinfo id="Pertini_20_25" depart="53.00" departLane="b63[0]_1" departPos="0.00" departSpeed="0.00" departDelay="0.00" arrival="122.00" arrivalLane="b4[1][1][1]_0" arrivalPos="187.19" arrivalSpeed="15.79" duration="69.00" routeLength="893.04" waitingTime="0.00" waitingCount="0" stopTime="0.00" timeLoss="13.31" rerouteNo="0" devices="tripinfo_Pertini_20_25" vType="passenger1" speedFactor="1.17" vaporized=""/>
    <tripinfo id="Audinot_7_0" depart="0.00" departLane="a131_0" departPos="0.00" departSpeed="0.00" departDelay="0.00" arrival="124.00" arrivalLane="a209_0" arrivalPos="407.25" arrivalSpeed="13.14" duration="124.00" routeLength="890.94" waitingTime="45.00" waitingCount="1" stopTime="0.00" timeLoss="57.81" rerouteNo="0" devices="tripinfo_Audinot_7_0" vType="passenger4" speedFactor="0.98" vaporized=""/>
    <tripinfo id="Costa_3_21" depart="55.00" departLane="a78[0]_0" departPos="0.00" departSpeed="0.00" departDelay="1.00" arrival="125.00" arrivalLane="a14_0" arrivalPos="103.28" arrivalSpeed="13.19" duration="70.00" routeLength="867.98" waitingTime="0.00" waitingCount="0" stopTime="0.00" timeLoss="7.76" rerouteNo="0" devices="tripinfo_Costa_3_21" vType="passenger4" speedFactor="1.01" vaporized=""/>
    <tripinfo id="Pertini_20_27" depart="58.00" departLane="b63[0]_1" departPos="0.00" departSpeed="0.00" departDelay="0.00" arrival="125.00" arrivalLane="b4[1][1][1]_1" arrivalPos="187.19" arrivalSpeed="15.09" duration="67.00" routeLength="893.04" waitingTime="0.00" waitingCount="0" stopTime="0.00" timeLoss="11.11" rerouteNo="0" devices="tripinfo_Pertini_20_27" vType="passenger3" speedFactor="1.15" vaporized=""/>
    <tripinfo id="Pertini_20_19" depart="40.00" departLane="b63[0]_2" departPos="0.00" departSpeed="0.00" departDelay="0.00" arrival="127.00" arrivalLane="b4[1][1][1]_0" arrivalPos="187.19" arrivalSpeed="11.04" duration="87.00" routeLength="893.04" waitingTime="0.00" waitingCount="0" stopTime="0.00" timeLoss="7.09" rerouteNo="0" devices="tripinfo_Pertini_20_19" vType="passenger2b" speedFactor="0.80" vaporized=""/>
    <tripinfo id="Pertini_20_28" depart="60.00" departLane="b63[0]_2" departPos="0.00" departSpeed="0.00" departDelay="0.00" arrival="127.00" arrivalLane="b4[1][1][1]_1" arrivalPos="187.19" arrivalSpeed="15.61" duration="67.00" routeLength="893.04" waitingTime="0.00" waitingCount="0" stopTime="0.00" timeLoss="9.80" rerouteNo="0" devices="tripinfo_Pertini_20_28" vType="passenger1" speedFactor="1.13" vaporized=""/>
    <tripinfo id="Prati_Capraia_100_14" depart="68.00" departLane="b3[0]_1" departPos="0.00" departSpeed="0.00" departDelay="0.00" arrival="127.00" arrivalLane="b3[1]b_0" arrivalPos="252.60" arrivalSpeed="11.92" duration="59.00" routeLength="641.04" waitingTime="0.00" waitingCount="0" stopTime="0.00" timeLoss="5.13" rerouteNo="0" devices="tripinfo_Prati_Capraia_100_14" vType="passenger1" speedFactor="0.87" vaporized=""/>
    <tripinfo id="Prati_Capraia_100_16" depart="77.00" departLane="b3[0]_0" departPos="0.00" departSpeed="0.00" departDelay="0.00" arrival="127.00" arrivalLane="b3[1]b_1" arrivalPos="252.60" arrivalSpeed="13.53" duration="50.00" routeLength="641.04" waitingTime="0.00" waitingCount="0" stopTime="0.00" timeLoss="5.13" rerouteNo="0" devices="tripinfo_Prati_Capraia_100_16" vType="passenger2b" speedFactor="1.04" vaporized=""/>
    <tripinfo id="Pertini_10_20" depart="43.00" departLane="b63[0]_2" departPos="0.00" departSpeed="0.00" departDelay="0.00" arrival="128.00" arrivalLane="b10_0" arrivalPos="235.74" arrivalSpeed="14.68" duration="85.00" routeLength="941.59" waitingTime="8.00" waitingCount="1" stopTime="0.00" timeLoss="22.70" rerouteNo="0" devices="tripinfo_Pertini_10_20" vType="passenger5" speedFactor="1.09" vaporized=""/>
    <tripinfo id="Pertini_20_26" depart="55.00" departLane="b63[0]_2" departPos="0.00" departSpeed="0.00" departDelay="0.00" arrival="132.00" arrivalLane="b4[1][1][1]_0" arrivalPos="187.19" arrivalSpeed="12.16" duration="77.00" routeLength="893.04" waitingTime="0.00" waitingCount="0" stopTime="0.00" timeLoss="6.67" rerouteNo="0" devices="tripinfo_Pertini_20_26" vType="passenger2a" speedFactor="0.92" vaporized=""/>
    <tripinfo id="Pertini_102_24" depart="52.00" departLane="b13[0]_0" departPos="0.00" departSpeed="0.00" departDelay="1.00" arrival="133.00" arrivalLane="b29[0]_0" arrivalPos="138.42" arrivalSpeed="13.13" duration="81.00" routeLength="825.24" waitingTime="7.00" waitingCount="1" stopTime="0.00" timeLoss="20.26" rerouteNo="0" devices="tripinfo_Pertini_102_24" vType="passenger2a" speedFactor="1.02" vaporized=""/>
    <tripinfo id="Pertini_20_30" depart="64.00" departLane="b63[0]_1" departPos="0.00" departSpeed="0.00" departDelay="0.00" arrival="133.00" arrivalLane="b4[1][1][1]_0" arrivalPos="187.19" arrivalSpeed="13.81" duration="69.00" routeLength="893.04" waitingTime="0.00" waitingCount="0" stopTime="0.00" timeLoss="8.49" rerouteNo="0" devices="tripinfo_Pertini_20_30" vType="passenger1" speedFactor="1.06" vaporized=""/>
    <tripinfo id="Prati_Capraia_100_17" depart="82.00" departLane="b3[0]_1" departPos="0.00" departSpeed="0.00" departDelay="0.00" arrival="134.00" arrivalLane="b3[1]b_0" arrivalPos="252.60" arrivalSpeed="13.02" duration="52.00" routeLength="641.04" waitingTime="0.00" waitingCount="0" stopTime="0.00" timeLoss="5.28" rerouteNo="0" devices="tripinfo_Prati_Capraia_100_17" vType="passenger1" speedFactor="1.00" vaporized=""/>
    <tripinfo id="Pepoli_9_1" depart="1.00" departLane="a210_0" departPos="0.00" departSpeed="0.00" departDelay="0.00" arrival="137.00" arrivalLane="a54_0" arrivalPos="308.49" arrivalSpeed="11.79" duration="136.00" routeLength="1330.14" waitingTime="21.00" waitingCount="1" stopTime="0.00" timeLoss="34.28" rerouteNo="0" devices="tripinfo_Pepoli_9_1" vType="passenger2b" speedFactor="0.94" vaporized=""/>
    <tripinfo id="Prati_Capraia_100_18" depart="87.00" departLane="b3[0]_0" departPos="0.00" departSpeed="0.00" departDelay="0.00" arrival="141.00" arrivalLane="b3[1]b_0" arrivalPos="252.60" arrivalSpeed="12.21" duration="54.00" routeLength="641.04" waitingTime="0.00" waitingCount="0" stopTime="0.00" timeLoss="5.26" rerouteNo="0" devices="tripinfo_Prati_Capraia_100_18" vType="passenger3" speedFactor="0.95" vaporized=""/>
    <tripinfo id="Malvasia_30_15" depart="72.00" departLane="b52_0" departPos="0.00" departSpeed="0.00" departDelay="0.00" arrival="143.00" arrivalLane="b70_0" arrivalPos="82.07" arrivalSpeed="15.72" duration="71.00" routeLength="979.55" waitingTime="0.00" waitingCount="0" stopTime="0.00" timeLoss="11.13" rerouteNo="0" devices="tripinfo_Malvasia_30_15" vType="passenger1" speedFactor="1.19" vaporized=""/>
    <tripinfo id="Borgo_20_3" depart="18.00" departLane="b6_1" departPos="0.00" departSpeed="0.00" departDelay="0.00" arrival="144.00" arrivalLane="b4[1][1][1]_1" arrivalPos="187.19" arrivalSpeed="11.84" duration="126.00" routeLength="556.49" waitingTime="72.00" waitingCount="1" stopTime="0.00" timeLoss="82.04" rerouteNo="0" devices="tripinfo_Borgo_20_3" vType="passenger2a" speedFactor="0.92" vaporized=""/>
    <tripinfo id="Borgo_20_4" depart="24.00" departLane="b6_1" departPos="0.00" departSpeed="0.00" departDelay="0.00" arrival="146.00" arrivalLane="b4[1][1][1]_0" arrivalPos="187.19" arrivalSpeed="12.77" duration="122.00" routeLength="556.49" waitingTime="70.00" waitingCount="1" stopTime="0.00" timeLoss="79.77" rerouteNo="0" devices="tripinfo_Borgo_20_4" vType="passenger2a" speedFactor="0.97" vaporized=""/>
    <tripinfo id="Borgo_20_6" depart="36.00" departLane="b6_1" departPos="0.00" departSpeed="0.00" departDelay="0.00" arrival="148.00" arrivalLane="b4[1][1][1]_1" arrivalPos="187.19" arrivalSpeed="13.93" duration="112.00" routeLength="556.49" waitingTime="61.00" waitingCount="1" stopTime="0.00" timeLoss="72.34" rerouteNo="0" devices="tripinfo_Borgo_20_6" vType="passenger3" speedFactor="1.01" vaporized=""/>
    <tripinfo id="Turati_3_2" depart="69.00" departLane="a195_0" departPos="0.00" departSpeed="0.00" departDelay="0.00" arrival="148.00" arrivalLane="a14_0" arrivalPos="103.28" arrivalSpeed="13.27" duration="79.00" routeLength="960.94" waitingTime="0.00" waitingCount="0" stopTime="0.00" timeLoss="9.20" rerouteNo="0" devices="tripinfo_Turati_3_2" vType="ignoring1" speedFactor="1.00" vaporized=""/>
    <tripinfo id="Pepoli_10_4" depart="6.00" departLane="a210_0" departPos="0.00" departSpeed="0.00" departDelay="0.00" arrival="149.00" arrivalLane="a204[1][1]_0" arrivalPos="449.24" arrivalSpeed="12.63" duration="143.00" routeLength="1486.52" waitingTime="20.00" waitingCount="1" stopTime="0.00" timeLoss="35.36" rerouteNo="0" devices="tripinfo_Pepoli_10_4" vType="passenger2a" speedFactor="0.99" vaporized=""/>
    <tripinfo id="Pepoli_10_10" depart="17.00" departLane="a210_0" departPos="0.00" departSpeed="0.00" departDelay="0.00" arrival="149.00" arrivalLane="a204[1][1]_1" arrivalPos="449.24" arrivalSpeed="13.80" duration="132.00" routeLength="1486.52" waitingTime="12.00" waitingCount="1" stopTime="0.00" timeLoss="29.76" rerouteNo="0" devices="tripinfo_Pepoli_10_10" vType="passenger1" speedFactor="1.06" vaporized=""/>
    <tripinfo id="Borgo_20_7" depart="42.00" departLane="b6_1" departPos="0.00" departSpeed="0.00" departDelay="0.00" arrival="150.00" arrivalLane="b4[1][1][1]_1" arrivalPos="187.19" arrivalSpeed="14.74" duration="108.00" routeLength="556.49" waitingTime="59.00" waitingCount="1" stopTime="0.00" timeLoss="71.93" rerouteNo="0" devices="tripinfo_Borgo_20_7" vType="passenger2a" speedFactor="1.13" vaporized=""/>
    <tripinfo id="Pepoli_8_23" depart="40.00" departLane="a210_0" departPos="0.00" departSpeed="0.00" departDelay="1.00" arrival="152.00" arrivalLane="a134b_0" arrivalPos="161.28" arrivalSpeed="11.98" duration="112.00" routeLength="708.05" waitingTime="44.00" waitingCount="1" stopTime="0.00" timeLoss="55.64" rerouteNo="0" devices="tripinfo_Pepoli_8_23" vType="passenger1" speedFactor="0.91" vaporized=""/>
    <tripinfo id="Borgo_20_9" depart="54.00" departLane="b6_1" departPos="0.00" departSpeed="0.00" departDelay="0.00" arrival="153.00" arrivalLane="b4[1][1][1]_0" arrivalPos="187.19" arrivalSpeed="12.58" duration="99.00" routeLength="556.49" waitingTime="45.00" waitingCount="1" stopTime="0.00" timeLoss="57.34" rerouteNo="0" devices="tripinfo_Borgo_20_9" vType="passenger1" speedFactor="0.97" vaporized=""/>
    <tripinfo id="Pepoli_8_25" depart="43.00" departLane="a210_0" departPos="0.00" departSpeed="0.00" departDelay="1.00" arrival="154.00" arrivalLane="a134b_0" arrivalPos="161.28" arrivalSpeed="13.40" duration="111.00" routeLength="708.05" waitingTime="44.00" waitingCount="1" stopTime="0.00" timeLoss="58.39" rerouteNo="0" devices="tripinfo_Pepoli_8_25" vType="passenger2b" speedFactor="0.98" vaporized=""/>
    <tripinfo id="Borgo_20_13" depart="79.00" departLane="b6_1" departPos="0.00" departSpeed="0.00" departDelay="0.00" arrival="154.00" arrivalLane="b4[1][1][1]_1" arrivalPos="187.19" arrivalSpeed="15.64" duration="75.00" routeLength="556.49" waitingTime="25.00" waitingCount="1" stopTime="0.00" timeLoss="39.39" rerouteNo="0" devices="tripinfo_Borgo_20_13" vType="passenger2b" speedFactor="1.13" vaporized=""/>
    <tripinfo id="Pepoli_3_0" depart="0.00" departLane="a210_2" departPos="0.00" departSpeed="0.00" departDelay="0.00" arrival="155.00" arrivalLane="a14_0" arrivalPos="103.28" arrivalSpeed="13.76" duration="155.00" routeLength="1961.55" waitingTime="0.00" waitingCount="0" stopTime="0.00" timeLoss="13.24" rerouteNo="0" devices="tripinfo_Pepoli_3_0" vType="ignoring1" speedFactor="1.00" vaporized=""/>
    <tripinfo id="Pepoli_10_22" depart="37.00" departLane="a210_1" departPos="0.00" departSpeed="0.00" departDelay="0.00" arrival="157.00" arrivalLane="a204[1][1]_1" arrivalPos="449.24" arrivalSpeed="13.24" duration="120.00" routeLength="1486.52" waitingTime="0.00" waitingCount="0" stopTime="0.00" timeLoss="12.79" rerouteNo="0" devices="tripinfo_Pepoli_10_22" vType="passenger1" speedFactor="1.00" vaporized=""/>
    <tripinfo id="Pepoli_8_28" depart="49.00" departLane="a210_0" departPos="0.00" departSpeed="0.00" departDelay="1.00" arrival="157.00" arrivalLane="a134b_0" arrivalPos="161.28" arrivalSpeed="11.98" duration="108.00" routeLength="708.05" waitingTime="38.00" waitingCount="1" stopTime="0.00" timeLoss="50.69" rerouteNo="0" devices="tripinfo_Pepoli_8_28" vType="passenger1" speedFactor="0.90" vaporized=""/>
    <tripinfo id="Pepoli_3_2" depart="3.00" departLane="a210_2" departPos="0.00" departSpeed="0.00" departDelay="0.00" arrival="158.00" arrivalLane="a14_0" arrivalPos="103.28" arrivalSpeed="13.69" duration="155.00" routeLength="1961.55" waitingTime="0.00" waitingCount="0" stopTime="0.00" timeLoss="13.12" rerouteNo="0" devices="tripinfo_Pepoli_3_2" vType="ignoring1" speedFactor="1.00" vaporized=""/>
    <tripinfo id="Pepoli_10_11" depart="20.00" departLane="a210_0" departPos="0.00" departSpeed="0.00" departDelay="2.00" arrival="158.00" arrivalLane="a204[1][1]_0" arrivalPos="449.24" arrivalSpeed="12.01" duration="138.00" routeLength="1486.52" waitingTime="3.00" waitingCount="1" stopTime="0.00" timeLoss="18.65" rerouteNo="0" devices="tripinfo_Pepoli_10_11" vType="passenger2b" speedFactor="0.90" vaporized=""/>
    <tripinfo id="Borgo_20_16" depart="97.00" departLane="b6_1" departPos="0.00" departSpeed="0.00" departDelay="0.00" arrival="158.00" arrivalLane="b4[1][1][1]_1" arrivalPos="187.19" arrivalSpeed="14.09" duration="61.00" routeLength="556.49" waitingTime="10.00" waitingCount="1" stopTime="0.00" timeLoss="24.10" rerouteNo="0" devices="tripinfo_Borgo_20_16" vType="passenger2b" speedFactor="1.10" vaporized=""/>
    <tripinfo id="Borgo_100_0" depart="0.00" departLane="b6_0" departPos="0.00" departSpeed="0.00" departDelay="0.00" arrival="159.00" arrivalLane="b3[1]b_0" arrivalPos="252.60" arrivalSpeed="14.97" duration="159.00" routeLength="822.15" waitingTime="93.00" waitingCount="1" stopTime="0.00" timeLoss="103.63" rerouteNo="0" devices="tripinfo_Borgo_100_0" vType="passenger1" speedFactor="1.08" vaporized=""/>