<?xml version="1.0" encoding="UTF-8"?>

<!-- generated on 2023-06-28 09:05:50 by Eclipse SUMO sumo Version 1.17.0
<configuration xmlns:xsi="http://www.w3.org/2001/XMLSchema-instance" xsi:noNamespaceSchemaLocation="http://sumo.dlr.de/xsd/sumoConfiguration.xsd">

    <input>
        <net-file value="/mnt/workspace/wangding/Desktop/TransWorldNG/experiment/traci_tls/cross.net.xml"/>
        <route-files value="/mnt/workspace/wangding/Desktop/TransWorldNG/experiment/traci_tls/cross.rou.xml"/>
        <additional-files value="/mnt/workspace/wangding/Desktop/TransWorldNG/experiment/traci_tls/cross.det.xml"/>
    </input>

    <output>
        <tripinfo-output value="/mnt/workspace/wangding/Desktop/TransWorldNG/experiment/traci_tls/tripinfo.xml"/>
    </output>

    <time>
        <begin value="0"/>
        <end value="1"/>
        <step-length value="1.0"/>
    </time>

    <report>
        <verbose value="true"/>
        <no-step-log value="true"/>
    </report>

    <traci_server>
        <remote-port value="36503"/>
    </traci_server>

</configuration>
--->

<detector xmlns:xsi="http://www.w3.org/2001/XMLSchema-instance" xsi:noNamespaceSchemaLocation="http://sumo.dlr.de/xsd/det_e1_file.xsd">
    <interval begin="0.00" end="30.00" id="0" nVehContrib="0" flow="0.00" occupancy="0.00" speed="-1.00" harmonicMeanSpeed="-1.00" length="-1.00" nVehEntered="0"/>
    <interval begin="30.00" end="60.00" id="0" nVehContrib="0" flow="0.00" occupancy="0.00" speed="-1.00" harmonicMeanSpeed="-1.00" length="-1.00" nVehEntered="0"/>
    <interval begin="60.00" end="90.00" id="0" nVehContrib="0" flow="0.00" occupancy="0.00" speed="-1.00" harmonicMeanSpeed="-1.00" length="-1.00" nVehEntered="0"/>
    <interval begin="90.00" end="120.00" id="0" nVehContrib="0" flow="0.00" occupancy="0.00" speed="-1.00" harmonicMeanSpeed="-1.00" length="-1.00" nVehEntered="0"/>
    <interval begin="120.00" end="150.00" id="0" nVehContrib="4" flow="480.00" occupancy="6.00" speed="16.11" harmonicMeanSpeed="15.55" length="7.00" nVehEntered="4"/>
    <interval begin="150.00" end="180.00" id="0" nVehContrib="5" flow="600.00" occupancy="10.11" speed="13.42" harmonicMeanSpeed="11.54" length="7.00" nVehEntered="5"/>
    <interval begin="180.00" end="210.00" id="0" nVehContrib="0" flow="0.00" occupancy="0.00" speed="-1.00" harmonicMeanSpeed="-1.00" length="-1.00" nVehEntered="0"/>
    <interval begin="210.00" end="240.00" id="0" nVehContrib="3" flow="360.00" occupancy="4.24" speed="16.73" harmonicMeanSpeed="16.51" length="7.00" nVehEntered="3"/>
    <interval begin="240.00" end="270.00" id="0" nVehContrib="0" flow="0.00" occupancy="0.00" speed="-1.00" harmonicMeanSpeed="-1.00" length="-1.00" nVehEntered="0"/>
    <interval begin="270.00" end="300.00" id="0" nVehContrib="0" flow="0.00" occupancy="0.00" speed="-1.00" harmonicMeanSpeed="-1.00" length="-1.00" nVehEntered="0"/>
    <interval begin="300.00" end="330.00" id="0" nVehContrib="0" flow="0.00" occupancy="0.00" speed="-1.00" harmonicMeanSpeed="-1.00" length="-1.00" nVehEntered="0"/>
    <interval begin="330.00" end="360.00" id="0" nVehContrib="1" flow="120.00" occupancy="1.20" speed="19.40" harmonicMeanSpeed="19.40" length="7.00" nVehEntered="1"/>
    <interval begin="360.00" end="390.00" id="0" nVehContrib="5" flow="600.00" occupancy="7.31" speed="16.14" harmonicMeanSpeed="15.96" length="7.00" nVehEntered="5"/>
    <interval begin="390.00" end="420.00" id="0" nVehContrib="5" flow="600.00" occupancy="6.26" speed="18.83" harmonicMeanSpeed="18.63" length="7.00" nVehEntered="5"/>
    <interval begin="420.00" end="450.00" id="0" nVehContrib="2" flow="240.00" occupancy="6.03" speed="8.47" harmonicMeanSpeed="7.74" length="7.00" nVehEntered="2"/>
    <interval begin="450.00" end="480.00" id="0" nVehContrib="8" flow="960.00" occupancy="34.94" speed="8.09" harmonicMeanSpeed="5.34" length="7.00" nVehEntered="8"/>
    <interval begin="480.00" end="510.00" id="0" nVehContrib="2" flow="240.00" occupancy="3.53" speed="13.63" harmonicMeanSpeed="13.21" length="7.00" nVehEntered="2"/>
    <interval begin="510.00" end="540.00" id="0" nVehContrib="5" flow="600.00" occupancy="27.56" speed="4.92" harmonicMeanSpeed="4.23" length="7.00" nVehEntered="5"/>
    <interval begin="540.00" end="570.00" id="0" nVehContrib="4" flow="480.00" occupancy="7.53" speed="14.18" harmonicMeanSpeed="12.39" length="7.00" nVehEntered="4"/>
    <interval begin="570.00" end="600.00" id="0" nVehContrib="1" flow="120.00" occupancy="1.47" speed="15.86" harmonicMeanSpeed="15.86" length="7.00" nVehEntered="1"/>
    <interval begin="600.00" end="630.00" id="0" nVehContrib="3" flow="360.00" occupancy="3.74" speed="18.71" harmonicMeanSpeed="18.69" length="7.00" nVehEntered="3"/>
    <interval begin="630.00" end="660.00" id="0" nVehContrib="0" flow="0.00" occupancy="0.00" speed="-1.00" harmonicMeanSpeed="-1.00" length="-1.00" nVehEntered="0"/>
    <interval begin="660.00" end="690.00" id="0" nVehContrib="3" flow="360.00" occupancy="4.22" speed="16.58" harmonicMeanSpeed="16.57" length="7.00" nVehEntered="3"/>
    <interval begin="690.00" end="720.00" id="0" nVehContrib="3" flow="360.00" occupancy="3.63" speed="19.44" harmonicMeanSpeed="19.26" length="7.00" nVehEntered="3"/>
    <interval begin="720.00" end="750.00" id="0" nVehContrib="1" flow="120.00" occupancy="1.32" speed="17.68" harmonicMeanSpeed="17.68" length="7.00" nVehEntered="1"/>
    <interval begin="750.00" end="780.00" id="0" nVehContrib="5" flow="600.00" occupancy="6.09" speed="19.27" harmonicMeanSpeed="19.17" length="7.00" nVehEntered="5"/>
    <interval begin="780.00" end="810.00" id="0" nVehContrib="4" flow="480.00" occupancy="8.52" speed="12.52" harmonicMeanSpeed="10.95" length="7.00" nVehEntered="4"/>
    <interval begin="810.00" end="840.00" id="0" nVehContrib="5" flow="600.00" occupancy="32.64" speed="4.79" harmonicMeanSpeed="3.68" length="7.00" nVehEntered="6"/>
    <interval begin="840.00" end="870.00" id="0" nVehContrib="6" flow="720.00" occupancy="12.84" speed="11.37" harmonicMeanSpeed="10.15" length="7.00" nVehEntered="5"/>
    <interval begin="870.00" end="900.00" id="0" nVehContrib="1" flow="120.00" occupancy="11.66" speed="2.00" harmonicMeanSpeed="2.00" length="7.00" nVehEntered="1"/>
    <interval begin="900.00" end="930.00" id="0" nVehContrib="8" flow="960.00" occupancy="27.82" speed="7.49" harmonicMeanSpeed="6.71" length="7.00" nVehEntered="8"/>
    <interval begin="930.00" end="960.00" id="0" nVehContrib="2" flow="240.00" occupancy="5.82" speed="9.08" harmonicMeanSpeed="8.01" length="7.00" nVehEntered="2"/>
    <interval begin="960.00" end="990.00" id="0" nVehContrib="6" flow="720.00" occupancy="30.95" speed="6.15" harmonicMeanSpeed="4.52" length="7.00" nVehEntered="6"/>
    <interval begin="990.00" end="1020.00" id="0" nVehContrib="3" flow="360.00" occupancy="4.02" speed="17.58" harmonicMeanSpeed="17.43" length="7.00" nVehEntered="3"/>
    <interval begin="1020.00" end="1050.00" id="0" nVehContrib="3" flow="360.00" occupancy="20.95" speed="6.66" harmonicMeanSpeed="3.42" length="7.00" nVehEntered="4"/>
    <interval begin="1050.00" end="1080.00" id="0" nVehContrib="4" flow="480.00" occupancy="18.90" speed="5.07" harmonicMeanSpeed="4.81" length="7.00" nVehEntered="3"/>
    <interval begin="1080.00" end="1110.00" id="0" nVehContrib="3" flow="360.00" occupancy="4.29" speed="16.42" harmonicMeanSpeed="16.31" length="7.00" nVehEntered="3"/>
    <interval begin="1110.00" end="1140.00" id="0" nVehContrib="0" flow="0.00" occupancy="0.00" speed="-1.00" harmonicMeanSpeed="-1.00" length="-1.00" nVehEntered="0"/>
    <interval begin="1140.00" end="1170.00" id="0" nVehContrib="3" flow="360.00" occupancy="3.92" speed="18.20" harmonicMeanSpeed="17.85" length="7.00" nVehEntered="3"/>
    <interval begin="1170.00" end="1200.00" id="0" nVehContrib="1" flow="120.00" occupancy="1.57" speed="14.88" harmonicMeanSpeed="14.88" length="7.00" nVehEntered="1"/>
    <interval begin="1200.00" end="1230.00" id="0" nVehContrib="2" flow="240.00" occupancy="2.84" speed="16.55" harmonicMeanSpeed="16.42" length="7.00" nVehEntered="2"/>
    <interval begin="1230.00" end="1260.00" id="0" nVehContrib="0" flow="0.00" occupancy="0.00" speed="-1.00" harmonicMeanSpeed="-1.00" length="-1.00" nVehEntered="0"/>
    <interval begin="1260.00" end="1290.00" id="0" nVehContrib="0" flow="0.00" occupancy="0.00" speed="-1.00" harmonicMeanSpeed="-1.00" length="-1.00" nVehEntered="0"/>
    <interval begin="1290.00" end="1320.00" id="0" nVehContrib="0" flow="0.00" occupancy="0.00" speed="-1.00" harmonicMeanSpeed="-1.00" length="-1.00" nVehEntered="0"/>
    <interval begin="1320.00" end="1350.00" id="0" nVehContrib="3" flow="360.00" occupancy="3.66" speed="19.14" harmonicMeanSpeed="19.11" length="7.00" nVehEntered="3"/>
    <interval begin="1350.00" end="1380.00" id="0" nVehContrib="3" flow="360.00" occupancy="3.95" speed="18.06" harmonicMeanSpeed="17.73" length="7.00" nVehEntered="3"/>
    <interval begin="1380.00" end="1410.00" id="0" nVehContrib="0" flow="0.00" occupancy="0.00" speed="-1.00" harmonicMeanSpeed="-1.00" length="-1.00" nVehEntered="0"/>
    <interval begin="1410.00" end="1440.00" id="0" nVehContrib="3" flow="360.00" occupancy="3.99" speed="17.72" harmonicMeanSpeed="17.54" length="7.00" nVehEntered="3"/>
    <interval begin="1440.00" end="1470.00" id="0" nVehContrib="3" flow="360.00" occupancy="4.50" speed="15.64" harmonicMeanSpeed="15.55" length="7.00" nVehEntered="3"/>
    <interval begin="1470.00" end="1500.00" id="0" nVehContrib="4" flow="480.00" occupancy="10.83" speed="9.66" harmonicMeanSpeed="8.62" length="7.00" nVehEntered="4"/>
    <interval begin="1500.00" end="1530.00" id="0" nVehContrib="5" flow="600.00" occupancy="6.76" speed="17.37" harmonicMeanSpeed="17.26" length="7.00" nVehEntered="5"/>
    <interval begin="1530.00" end="1560.00" id="0" nVehContrib="2" flow="240.00" occupancy="5.68" speed="8.78" harmonicMeanSpeed="8.21" length="7.00" nVehEntered="2"/>
    <interval begin="1560.00" end="1590.00" id="0" nVehContrib="4" flow="480.00" occupancy="15.93" speed="13.80" harmonicMeanSpeed="5.86" length="7.00" nVehEntered="4"/>
    <interval begin="1590.00" end="1620.00" id="0" nVehContrib="2" flow="240.00" occupancy="2.88" speed="16.37" harmonicMeanSpeed="16.20" length="7.00" nVehEntered="2"/>
    <interval begin="1620.00" end="1650.00" id="0" nVehContrib="5" flow="600.00" occupancy="26.26" speed="6.82" harmonicMeanSpeed="4.71" length="7.00" nVehEntered="6"/>
    <interval begin="1650.00" end="1680.00" id="0" nVehContrib="5" flow="600.00" occupancy="5.19" speed="18.07" harmonicMeanSpeed="17.49" length="7.00" nVehEntered="4"/>
    <interval begin="1680.00" end="1710.00" id="0" nVehContrib="2" flow="240.00" occupancy="6.67" speed="8.85" harmonicMeanSpeed="8.21" length="7.00" nVehEntered="3"/>
    <interval begin="1710.00" end="1740.00" id="0" nVehContrib="7" flow="840.00" occupancy="29.06" speed="9.82" harmonicMeanSpeed="5.44" length="7.00" nVehEntered="6"/>
    <interval begin="1740.00" end="1770.00" id="0" nVehContrib="3" flow="360.00" occupancy="7.37" speed="10.45" harmonicMeanSpeed="9.49" length="7.00" nVehEntered="3"/>
    <interval begin="1770.00" end="1800.00" id="0" nVehContrib="5" flow="600.00" occupancy="31.19" speed="4.90" harmonicMeanSpeed="3.74" length="7.00" nVehEntered="5"/>
    <interval begin="1800.00" end="1830.00" id="0" nVehContrib="6" flow="720.00" occupancy="15.70" speed="9.35" harmonicMeanSpeed="8.92" length="7.00" nVehEntered="6"/>
    <interval begin="1830.00" end="1860.00" id="0" nVehContrib="0" flow="0.00" occupancy="7.97" speed="-1.00" harmonicMeanSpeed="-1.00" length="-1.00" nVehEntered="1"/>
    <interval begin="1860.00" end="1890.00" id="0" nVehContrib="4" flow="480.00" occupancy="18.33" speed="4.38" harmonicMeanSpeed="3.55" length="7.00" nVehEntered="3"/>
    <interval begin="1890.00" end="1920.00" id="0" nVehContrib="3" flow="360.00" occupancy="4.46" speed="15.76" harmonicMeanSpeed="15.69" length="7.00" nVehEntered="3"/>
    <interval begin="1920.00" end="1950.00" id="0" nVehContrib="3" flow="360.00" occupancy="6.92" speed="10.74" harmonicMeanSpeed="10.11" length="7.00" nVehEntered="3"/>
    <interval begin="1950.00" end="1980.00" id="0" nVehContrib="3" flow="360.00" occupancy="4.15" speed="17.10" harmonicMeanSpeed="16.89" length="7.00" nVehEntered="3"/>
    <interval begin="1980.00" end="2010.00" id="0" nVehContrib="2" flow="240.00" occupancy="4.51" speed="10.55" harmonicMeanSpeed="10.34" length="7.00" nVehEntered="2"/>
    <interval begin="2010.00" end="2040.00" id="0" nVehContrib="5" flow="600.00" occupancy="6.59" speed="17.81" harmonicMeanSpeed="17.71" length="7.00" nVehEntered="5"/>
    <interval begin="2040.00" end="2070.00" id="0" nVehContrib="2" flow="240.00" occupancy="3.64" speed="12.99" harmonicMeanSpeed="12.81" length="7.00" nVehEntered="2"/>
    <interval begin="2070.00" end="2100.00" id="0" nVehContrib="0" flow="0.00" occupancy="0.00" speed="-1.00" harmonicMeanSpeed="-1.00" length="-1.00" nVehEntered="0"/>
    <interval begin="2100.00" end="2130.00" id="0" nVehContrib="4" flow="480.00" occupancy="5.99" speed="16.00" harmonicMeanSpeed="15.59" length="7.00" nVehEntered="4"/>
    <interval begin="2130.00" end="2160.00" id="0" nVehContrib="2" flow="240.00" occupancy="15.54" speed="4.15" harmonicMeanSpeed="3.00" length="7.00" nVehEntered="2"/>
    <interval begin="2160.00" end="2190.00" id="0" nVehContrib="0" flow="0.00" occupancy="0.00" speed="-1.00" harmonicMeanSpeed="-1.00" length="-1.00" nVehEntered="0"/>
    <interval begin="2190.00" end="2220.00" id="0" nVehContrib="0" flow="0.00" occupancy="0.00" speed="-1.00" harmonicMeanSpeed="-1.00" length="-1.00" nVehEntered="0"/>
    <interval begin="2220.00" end="2250.00" id="0" nVehContrib="1" flow="120.00" occupancy="1.12" speed="20.78" harmonicMeanSpeed="20.78" length="7.00" nVehEntered="1"/>
    <interval begin="2250.00" end="2280.00" id="0" nVehContrib="2" flow="240.00" occupancy="2.56" speed="18.26" harmonicMeanSpeed="18.25" length="7.00" nVehEntered="2"/>
    <interval begin="2280.00" end="2310.00" id="0" nVehContrib="4" flow="480.00" occupancy="7.29" speed="13.05" harmonicMeanSpeed="12.80" length="7.00" nVehEntered="4"/>
    <interval begin="2310.00" end="2340.00" id="0" nVehContrib="5" flow="600.00" occupancy="8.44" speed="14.01" harmonicMeanSpeed="13.82" length="7.00" nVehEntered="5"/>
    <interval begin="2340.00" end="2370.00" id="0" nVehContrib="1" flow="120.00" occupancy="3.58" speed="6.52" harmonicMeanSpeed="6.52" length="7.00" nVehEntered="1"/>
    <interval begin="2370.00" end="2400.00" id="0" nVehContrib="5" flow="600.00" occupancy="30.01" speed="4.83" harmonicMeanSpeed="3.89" length="7.00" nVehEntered="5"/>
    <interval begin="2400.00" end="2430.00" id="0" nVehContrib="3" flow="360.00" occupancy="4.26" speed="16.70" harmonicMeanSpeed="16.43" length="7.00" nVehEntered="3"/>
    <interval begin="2430.00" end="2460.00" id="0" nVehContrib="2" flow="240.00" occupancy="2.55" speed="18.30" harmonicMeanSpeed="18.28" length="7.00" nVehEntered="2"/>
    <interval begin="2460.00" end="2490.00" id="0" nVehContrib="1" flow="120.00" occupancy="1.53" speed="15.28" harmonicMeanSpeed="15.28" length="7.00" nVehEntered="1"/>
    <interval begin="2490.00" end="2520.00" id="0" nVehContrib="5" flow="600.00" occupancy="10.17" speed="13.14" harmonicMeanSpeed="11.47" length="7.00" nVehEntered="5"/>
    <interval begin="2520.00" end="2550.00" id="0" nVehContrib="5" flow="600.00" occupancy="24.98" speed="9.92" harmonicMeanSpeed="4.67" length="7.00" nVehEntered="5"/>
    <interval begin="2550.00" end="2580.00" id="0" nVehContrib="2" flow="240.00" occupancy="2.66" speed="17.51" harmonicMeanSpeed="17.51" length="7.00" nVehEntered="2"/>
    <interval begin="2580.00" end="2610.00" id="0" nVehContrib="5" flow="600.00" occupancy="16.00" speed="8.53" harmonicMeanSpeed="7.43" length="7.00" nVehEntered="6"/>
    <interval begin="2610.00" end="2640.00" id="0" nVehContrib="4" flow="480.00" occupancy="4.94" speed="18.24" harmonicMeanSpeed="17.83" length="7.00" nVehEntered="3"/>
    <interval begin="2640.00" end="2670.00" id="0" nVehContrib="0" flow="0.00" occupancy="0.00" speed="-1.00" harmonicMeanSpeed="-1.00" length="-1.00" nVehEntered="0"/>
    <interval begin="2670.00" end="2700.00" id="0" nVehContrib="1" flow="120.00" occupancy="1.23" speed="18.95" harmonicMeanSpeed="18.95" length="7.00" nVehEntered="1"/>
    <interval begin="2700.00" end="2730.00" id="0" nVehContrib="3" flow="360.00" occupancy="5.11" speed="14.23" harmonicMeanSpeed="13.71" length="7.00" nVehEntered="3"/>
    <interval begin="2730.00" end="2760.00" id="0" nVehContrib="2" flow="240.00" occupancy="14.78" speed="4.34" harmonicMeanSpeed="3.16" length="7.00" nVehEntered="2"/>
    <interval begin="2760.00" end="2790.00" id="0" nVehContrib="2" flow="240.00" occupancy="2.53" speed="18.43" harmonicMeanSpeed="18.43" length="7.00" nVehEntered="2"/>
    <interval begin="2790.00" end="2820.00" id="0" nVehContrib="1" flow="120.00" occupancy="1.62" speed="14.39" harmonicMeanSpeed="14.39" length="7.00" nVehEntered="1"/>
    <interval begin="2820.00" end="2850.00" id="0" nVehContrib="3" flow="360.00" occupancy="3.82" speed="18.39" harmonicMeanSpeed="18.34" length="7.00" nVehEntered="3"/>
    <interval begin="2850.00" end="2880.00" id="0" nVehContrib="2" flow="240.00" occupancy="2.67" speed="17.56" harmonicMeanSpeed="17.49" length="7.00" nVehEntered="2"/>
    <interval begin="2880.00" end="2910.00" id="0" nVehContrib="4" flow="480.00" occupancy="7.11" speed="13.35" harmonicMeanSpeed="13.13" length="7.00" nVehEntered="4"/>
    <interval begin="2910.00" end="2940.00" id="0" nVehContrib="0" flow="0.00" occupancy="0.00" speed="-1.00" harmonicMeanSpeed="-1.00" length="-1.00" nVehEntered="0"/>
    <interval begin="2940.00" end="2970.00" id="0" nVehContrib="0" flow="0.00" occupancy="0.00" speed="-1.00" harmonicMeanSpeed="-1.00" length="-1.00" nVehEntered="0"/>
    <interval begin="2970.00" end="3000.00" id="0" nVehContrib="4" flow="480.00" occupancy="5.27" speed="17.83" harmonicMeanSpeed="17.71" length="7.00" nVehEntered="4"/>
    <interval begin="3000.00" end="3030.00" id="0" nVehContrib="4" flow="480.00" occupancy="8.71" speed="12.74" harmonicMeanSpeed="10.72" length="7.00" nVehEntered="4"/>
    <interval begin="3030.00" end="3060.00" id="0" nVehContrib="5" flow="600.00" occupancy="32.22" speed="4.63" harmonicMeanSpeed="3.62" length="7.00" nVehEntered="5"/>
    <interval begin="3060.00" end="3090.00" id="0" nVehContrib="5" flow="600.00" occupancy="8.86" speed="13.45" harmonicMeanSpeed="13.17" length="7.00" nVehEntered="5"/>
    <interval begin="3090.00" end="3120.00" id="0" nVehContrib="2" flow="240.00" occupancy="15.19" speed="4.26" harmonicMeanSpeed="3.07" length="7.00" nVehEntered="2"/>
    <interval begin="3120.00" end="3150.00" id="0" nVehContrib="4" flow="480.00" occupancy="10.21" speed="13.95" harmonicMeanSpeed="9.14" length="7.00" nVehEntered="4"/>
    <interval begin="3150.00" end="3180.00" id="0" nVehContrib="3" flow="360.00" occupancy="7.14" speed="11.25" harmonicMeanSpeed="9.80" length="7.00" nVehEntered="3"/>
    <interval begin="3180.00" end="3210.00" id="0" nVehContrib="6" flow="720.00" occupancy="33.13" speed="6.06" harmonicMeanSpeed="4.23" length="7.00" nVehEntered="6"/>
    <interval begin="3210.00" end="3240.00" id="0" nVehContrib="5" flow="600.00" occupancy="10.04" speed="13.48" harmonicMeanSpeed="11.62" length="7.00" nVehEntered="5"/>
    <interval begin="3240.00" end="3270.00" id="0" nVehContrib="1" flow="120.00" occupancy="14.54" speed="1.76" harmonicMeanSpeed="1.76" length="7.00" nVehEntered="2"/>
    <interval begin="3270.00" end="3300.00" id="0" nVehContrib="8" flow="960.00" occupancy="25.84" speed="8.61" harmonicMeanSpeed="6.89" length="7.00" nVehEntered="7"/>
    <interval begin="3300.00" end="3330.00" id="0" nVehContrib="2" flow="240.00" occupancy="5.43" speed="9.44" harmonicMeanSpeed="8.59" length="7.00" nVehEntered="2"/>
    <interval begin="3330.00" end="3360.00" id="0" nVehContrib="2" flow="240.00" occupancy="16.52" speed="3.19" harmonicMeanSpeed="2.82" length="7.00" nVehEntered="2"/>
    <interval begin="3360.00" end="3390.00" id="0" nVehContrib="0" flow="0.00" occupancy="0.00" speed="-1.00" harmonicMeanSpeed="-1.00" length="-1.00" nVehEntered="0"/>
    <interval begin="3390.00" end="3420.00" id="0" nVehContrib="0" flow="0.00" occupancy="0.00" speed="-1.00" harmonicMeanSpeed="-1.00" length="-1.00" nVehEntered="0"/>
    <interval begin="3420.00" end="3450.00" id="0" nVehContrib="0" flow="0.00" occupancy="0.00" speed="-1.00" harmonicMeanSpeed="-1.00" length="-1.00" nVehEntered="0"/>
    <interval begin="3450.00" end="3480.00" id="0" nVehContrib="3" flow="360.00" occupancy="4.00" speed="17.64" harmonicMeanSpeed="17.50" length="7.00" nVehEntered="3"/>
    <interval begin="3480.00" end="3510.00" id="0" nVehContrib="2" flow="240.00" occupancy="2.47" speed="18.92" harmonicMeanSpeed="18.91" length="7.00" nVehEntered="2"/>
    <interval begin="3510.00" end="3540.00" id="0" nVehContrib="1" flow="120.00" occupancy="1.37" speed="17.05" harmonicMeanSpeed="17.05" length="7.00" nVehEntered="1"/>
    <interval begin="3540.00" end="3570.00" id="0" nVehContrib="1" flow="120.00" occupancy="1.40" speed="16.65" harmonicMeanSpeed="16.65" length="7.00" nVehEntered="1"/>
    <interval begin="3570.00" end="3600.00" id="0" nVehContrib="2" flow="240.00" occupancy="2.42" speed="19.32" harmonicMeanSpeed="19.32" length="7.00" nVehEntered="2"/>
    <interval begin="3600.00" end="3630.00" id="0" nVehContrib="0" flow="0.00" occupancy="0.00" speed="-1.00" harmonicMeanSpeed="-1.00" length="-1.00" nVehEntered="0"/>
    <interval begin="3630.00" end="3660.00" id="0" nVehContrib="3" flow="360.00" occupancy="3.65" speed="19.26" harmonicMeanSpeed="19.18" length="7.00" nVehEntered="3"/>
    <interval begin="3660.00" end="3690.00" id="0" nVehContrib="0" flow="0.00" occupancy="0.00" speed="-1.00" harmonicMeanSpeed="-1.00" length="-1.00" nVehEntered="0"/>
    <interval begin="3690.00" end="3720.00" id="0" nVehContrib="0" flow="0.00" occupancy="0.00" speed="-1.00" harmonicMeanSpeed="-1.00" length="-1.00" nVehEntered="0"/>
    <interval begin="3720.00" end="3750.00" id="0" nVehContrib="0" flow="0.00" occupancy="0.00" speed="-1.00" harmonicMeanSpeed="-1.00" length="-1.00" nVehEntered="0"/>
    <interval begin="3750.00" end="3780.00" id="0" nVehContrib="0" flow="0.00" occupancy="0.00" speed="-1.00" harmonicMeanSpeed="-1.00" length="-1.00" nVehEntered="0"/>
    <interval begin="3780.00" end="3810.00" id="0" nVehContrib="0" flow="0.00" occupancy="0.00" speed="-1.00" harmonicMeanSpeed="-1.00" length="-1.00" nVehEntered="0"/>
    <interval begin="3810.00" end="3840.00" id="0" nVehContrib="0" flow="0.00" occupancy="0.00" speed="-1.00" harmonicMeanSpeed="-1.00" length="-1.00" nVehEntered="0"/>
    <interval begin="3840.00" end="3870.00" id="0" nVehContrib="0" flow="0.00" occupancy="0.00" speed="-1.00" harmonicMeanSpeed="-1.00" length="-1.00" nVehEntered="0"/>
    <interval begin="3870.00" end="3900.00" id="0" nVehContrib="0" flow="0.00" occupancy="0.00" speed="-1.00" harmonicMeanSpeed="-1.00" length="-1.00" nVehEntered="0"/>
    <interval begin="3900.00" end="3930.00" id="0" nVehContrib="0" flow="0.00" occupancy="0.00" speed="-1.00" harmonicMeanSpeed="-1.00" length="-1.00" nVehEntered="0"/>
    <interval begin="3930.00" end="3960.00" id="0" nVehContrib="0" flow="0.00" occupancy="0.00" speed="-1.00" harmonicMeanSpeed="-1.00" length="-1.00" nVehEntered="0"/>
    <interval begin="3960.00" end="3990.00" id="0" nVehContrib="0" flow="0.00" occupancy="0.00" speed="-1.00" harmonicMeanSpeed="-1.00" length="-1.00" nVehEntered="0"/>
    <interval begin="3990.00" end="4020.00" id="0" nVehContrib="0" flow="0.00" occupancy="0.00" speed="-1.00" harmonicMeanSpeed="-1.00" length="-1.00" nVehEntered="0"/>
    <interval begin="4020.00" end="4050.00" id="0" nVehContrib="0" flow="0.00" occupancy="0.00" speed="-1.00" harmonicMeanSpeed="-1.00" length="-1.00" nVehEntered="0"/>
    <interval begin="4050.00" end="4080.00" id="0" nVehContrib="0" flow="0.00" occupancy="0.00" speed="-1.00" harmonicMeanSpeed="-1.00" length="-1.00" nVehEntered="0"/>
    <interval begin="4080.00" end="4110.00" id="0" nVehContrib="0" flow="0.00" occupancy="0.00" speed="-1.00" harmonicMeanSpeed="-1.00" length="-1.00" nVehEntered="0"/>
    <interval begin="4110.00" end="4140.00" id="0" nVehContrib="0" flow="0.00" occupancy="0.00" speed="-1.00" harmonicMeanSpeed="-1.00" length="-1.00" nVehEntered="0"/>
    <interval begin="4140.00" end="4170.00" id="0" nVehContrib="0" flow="0.00" occupancy="0.00" speed="-1.00" harmonicMeanSpeed="-1.00" length="-1.00" nVehEntered="0"/>
    <interval begin="4170.00" end="4200.00" id="0" nVehContrib="0" flow="0.00" occupancy="0.00" speed="-1.00" harmonicMeanSpeed="-1.00" length="-1.00" nVehEntered="0"/>
    <interval begin="4200.00" end="4230.00" id="0" nVehContrib="0" flow="0.00" occupancy="0.00" speed="-1.00" harmonicMeanSpeed="-1.00" length="-1.00" nVehEntered="0"/>
    <interval begin="4230.00" end="4260.00" id="0" nVehContrib="0" flow="0.00" occupancy="0.00" speed="-1.00" harmonicMeanSpeed="-1.00" length="-1.00" nVehEntered="0"/>
    <interval begin="4260.00" end="4290.00" id="0" nVehContrib="0" flow="0.00" occupancy="0.00" speed="-1.00" harmonicMeanSpeed="-1.00" length="-1.00" nVehEntered="0"/>
    <interval begin="4290.00" end="4320.00" id="0" nVehContrib="0" flow="0.00" occupancy="0.00" speed="-1.00" harmonicMeanSpeed="-1.00" length="-1.00" nVehEntered="0"/>
    <interval begin="4320.00" end="4350.00" id="0" nVehContrib="0" flow="0.00" occupancy="0.00" speed="-1.00" harmonicMeanSpeed="-1.00" length="-1.00" nVehEntered="0"/>
    <interval begin="4350.00" end="4380.00" id="0" nVehContrib="0" flow="0.00" occupancy="0.00" speed="-1.00" harmonicMeanSpeed="-1.00" length="-1.00" nVehEntered="0"/>
    <interval begin="4380.00" end="4410.00" id="0" nVehContrib="0" flow="0.00" occupancy="0.00" speed="-1.00" harmonicMeanSpeed="-1.00" length="-1.00" nVehEntered="0"/>
    <interval begin="4410.00" end="4440.00" id="0" nVehContrib="0" flow="0.00" occupancy="0.00" speed="-1.00" harmonicMeanSpeed="-1.00" length="-1.00" nVehEntered="0"/>
    <interval begin="4440.00" end="4470.00" id="0" nVehContrib="0" flow="0.00" occupancy="0.00" speed="-1.00" harmonicMeanSpeed="-1.00" length="-1.00" nVehEntered="0"/>
    <interval begin="4470.00" end="4500.00" id="0" nVehContrib="0" flow="0.00" occupancy="0.00" speed="-1.00" harmonicMeanSpeed="-1.00" length="-1.00" nVehEntered="0"/>
    <interval begin="4500.00" end="4530.00" id="0" nVehContrib="0" flow="0.00" occupancy="0.00" speed="-1.00" harmonicMeanSpeed="-1.00" length="-1.00" nVehEntered="0"/>
    <interval begin="4530.00" end="4560.00" id="0" nVehContrib="0" flow="0.00" occupancy="0.00" speed="-1.00" harmonicMeanSpeed="-1.00" length="-1.00" nVehEntered="0"/>
    <interval begin="4560.00" end="4590.00" id="0" nVehContrib="0" flow="0.00" occupancy="0.00" speed="-1.00" harmonicMeanSpeed="-1.00" length="-1.00" nVehEntered="0"/>
    <interval begin="4590.00" end="4620.00" id="0" nVehContrib="0" flow="0.00" occupancy="0.00" speed="-1.00" harmonicMeanSpeed="-1.00" length="-1.00" nVehEntered="0"/>
    <interval begin="4620.00" end="4650.00" id="0" nVehContrib="0" flow="0.00" occupancy="0.00" speed="-1.00" harmonicMeanSpeed="-1.00" length="-1.00" nVehEntered="0"/>
    <interval begin="4650.00" end="4680.00" id="0" nVehContrib="0" flow="0.00" occupancy="0.00" speed="-1.00" harmonicMeanSpeed="-1.00" length="-1.00" nVehEntered="0"/>
    <interval begin="4680.00" end="4710.00" id="0" nVehContrib="0" flow="0.00" occupancy="0.00" speed="-1.00" harmonicMeanSpeed="-1.00" length="-1.00" nVehEntered="0"/>
    <interval begin="4710.00" end="4740.00" id="0" nVehContrib="0" flow="0.00" occupancy="0.00" speed="-1.00" harmonicMeanSpeed="-1.00" length="-1.00" nVehEntered="0"/>
    <interval begin="4740.00" end="4770.00" id="0" nVehContrib="0" flow="0.00" occupancy="0.00" speed="-1.00" harmonicMeanSpeed="-1.00" length="-1.00" nVehEntered="0"/>
    <interval begin="4770.00" end="4800.00" id="0" nVehContrib="0" flow="0.00" occupancy="0.00" speed="-1.00" harmonicMeanSpeed="-1.00" length="-1.00" nVehEntered="0"/>
    <interval begin="4800.00" end="4830.00" id="0" nVehContrib="0" flow="0.00" occupancy="0.00" speed="-1.00" harmonicMeanSpeed="-1.00" length="-1.00" nVehEntered="0"/>
    <interval begin="4830.00" end="4860.00" id="0" nVehContrib="0" flow="0.00" occupancy="0.00" speed="-1.00" harmonicMeanSpeed="-1.00" length="-1.00" nVehEntered="0"/>
    <interval begin="4860.00" end="4890.00" id="0" nVehContrib="0" flow="0.00" occupancy="0.00" speed="-1.00" harmonicMeanSpeed="-1.00" length="-1.00" nVehEntered="0"/>
    <interval begin="4890.00" end="4920.00" id="0" nVehContrib="0" flow="0.00" occupancy="0.00" speed="-1.00" harmonicMeanSpeed="-1.00" length="-1.00" nVehEntered="0"/>
    <interval begin="4920.00" end="4950.00" id="0" nVehContrib="0" flow="0.00" occupancy="0.00" speed="-1.00" harmonicMeanSpeed="-1.00" length="-1.00" nVehEntered="0"/>
    <interval begin="4950.00" end="4980.00" id="0" nVehContrib="0" flow="0.00" occupancy="0.00" speed="-1.00" harmonicMeanSpeed="-1.00" length="-1.00" nVehEntered="0"/>
    <interval begin="4980.00" end="5010.00" id="0" nVehContrib="0" flow="0.00" occupancy="0.00" speed="-1.00" harmonicMeanSpeed="-1.00" length="-1.00" nVehEntered="0"/>
    <interval begin="5010.00" end="5040.00" id="0" nVehContrib="0" flow="0.00" occupancy="0.00" speed="-1.00" harmonicMeanSpeed="-1.00" length="-1.00" nVehEntered="0"/>
    <interval begin="5040.00" end="5070.00" id="0" nVehContrib="0" flow="0.00" occupancy="0.00" speed="-1.00" harmonicMeanSpeed="-1.00" length="-1.00" nVehEntered="0"/>
    <interval begin="5070.00" end="5100.00" id="0" nVehContrib="0" flow="0.00" occupancy="0.00" speed="-1.00" harmonicMeanSpeed="-1.00" length="-1.00" nVehEntered="0"/>